# Projected DOS for atomic kind N at iteration step i = 0, E(Fermi) =    -0.170858 a.u.
#     MO Eigenvalue [a.u.]      Occupation                 s                py                pz                px
       1         -0.976805        1.000000        0.62578956        0.00003231        0.00010877        0.00012971
       2         -0.972779        1.000000        0.62000221        0.00056783        0.00005495        0.00009444
       3         -0.967718        1.000000        0.62251329        0.00000113        0.00005456        0.00000558
       4         -0.958046        1.000000        0.62010290        0.00004242        0.00058829        0.00039929
       5         -0.950356        1.000000        0.61706992        0.00018075        0.00045196        0.00008866
       6         -0.939975        1.000000        0.61322111        0.00002953        0.00014175        0.00001361
       7         -0.933549        1.000000        0.61361005        0.00002189        0.00000567        0.00015911
       8         -0.709850        1.000000        0.01395476        0.01251996        0.01892662        0.20062382
       9         -0.709530        1.000000        0.01877455        0.01809655        0.02579945        0.16436263
      10         -0.703126        1.000000        0.01655397        0.01002130        0.17550420        0.02474120
      11         -0.697907        1.000000        0.01898819        0.00214899        0.07084624        0.13415379
      12         -0.695247        1.000000        0.02126844        0.00515892        0.01727926        0.17839489
      13         -0.683043        1.000000        0.01747995        0.00268770        0.12703776        0.06108680
      14         -0.678545        1.000000        0.01633446        0.03872644        0.02669320        0.12410633
      15         -0.626274        1.000000        0.00000410        0.00003888        0.00005714        0.00010782
      16         -0.615796        1.000000        0.00033873        0.00635099        0.00247148        0.00367233
      17         -0.615435        1.000000        0.00024754        0.00018157        0.06805440        0.00830333
      18         -0.608868        1.000000        0.00008625        0.24033633        0.29493562        0.07875897
      19         -0.606709        1.000000        0.00025132        0.04753742        0.13170431        0.00814263
      20         -0.598599        1.000000        0.00004125        0.00481559        0.02852245        0.00345858
      21         -0.597453        1.000000        0.00011108        0.26749161        0.10700899        0.21480436
      22         -0.596372        1.000000        0.00013887        0.01033386        0.28879582        0.02910373
      23         -0.588413        1.000000        0.00002284        0.50453289        0.00689603        0.00385778
      24         -0.587786        1.000000        0.00008204        0.10561040        0.01293049        0.06743427
      25         -0.586773        1.000000        0.00031090        0.08439123        0.05054921        0.04735222
      26         -0.585515        1.000000        0.00204085        0.48202834        0.01734087        0.03927161
      27         -0.584819        1.000000        0.00023923        0.16535641        0.07327005        0.05929027
      28         -0.583595        1.000000        0.00005793        0.11488579        0.03905461        0.01185245
      29         -0.581250        1.000000        0.00093607        0.08179157        0.00187584        0.03645076
      30         -0.580930        1.000000        0.00008923        0.01648051        0.00395028        0.00503520
      31         -0.580279        1.000000        0.00011906        0.01708088        0.00607881        0.01619685
      32         -0.579127        1.000000        0.00000652        0.33261572        0.25198579        0.00635069
      33         -0.578589        1.000000        0.00013771        0.10754224        0.02930922        0.10212401
      34         -0.577268        1.000000        0.00027981        0.12161641        0.00601059        0.09208484
      35         -0.575916        1.000000        0.00012462        0.03818094        0.00545180        0.02189598
      36         -0.574968        1.000000        0.00003594        0.01463817        0.01257022        0.00445875
      37         -0.572869        1.000000        0.00019181        0.01743092        0.01692154        0.01606058
      38         -0.570870        1.000000        0.00008140        0.01064757        0.05307805        0.00336704
      39         -0.569624        1.000000        0.00279088        0.01138346        0.23003034        0.20671452
      40         -0.569186        1.000000        0.00081670        0.07714824        0.10185517        0.05484034
      41         -0.567960        1.000000        0.00043530        0.06056642        0.00837332        0.02482207
      42         -0.567820        1.000000        0.00001279        0.00073272        0.00105264        0.00060304
      43         -0.566443        1.000000        0.00002017        0.00487566        0.00093162        0.00025907
      44         -0.565036        1.000000        0.00041419        0.00485345        0.06607686        0.00183547
      45         -0.564754        1.000000        0.00006633        0.00050457        0.00731883        0.00140278
      46         -0.564689        1.000000        0.00008477        0.02252591        0.02380460        0.03568897
      47         -0.562421        1.000000        0.00151814        0.01685252        0.24450117        0.01280257
      48         -0.559836        1.000000        0.00015173        0.02737689        0.07379311        0.12505988
      49         -0.559168        1.000000        0.00019775        0.00933786        0.06479317        0.10239752
      50         -0.557265        1.000000        0.00001271        0.03267295        0.02056033        0.02002958
      51         -0.554820        1.000000        0.00008535        0.33265910        0.00305031        0.00348761
      52         -0.553507        1.000000        0.00003217        0.01799310        0.02839126        0.03862772
      53         -0.553080        1.000000        0.00014253        0.15616312        0.06638563        0.00651157
      54         -0.552889        1.000000        0.00003659        0.02434621        0.01366392        0.00698797
      55         -0.551977        1.000000        0.00000874        0.01415799        0.00147311        0.00493597
      56         -0.551248        1.000000        0.00005962        0.01462165        0.00917503        0.00448941
      57         -0.550866        1.000000        0.00010451        0.05340155        0.00344532        0.00525322
      58         -0.550675        1.000000        0.00013923        0.07291696        0.00386893        0.01436299
      59         -0.550469        1.000000        0.00025823        0.15254060        0.01223324        0.03502539
      60         -0.546547        1.000000        0.00002608        0.04133626        0.01670817        0.02878426
      61         -0.545296        1.000000        0.00001718        0.02271127        0.00753942        0.00021821
      62         -0.545178        1.000000        0.00001570        0.00432107        0.00231136        0.00043499
      63         -0.544912        1.000000        0.00005233        0.00518758        0.00072633        0.00036575
      64         -0.543953        1.000000        0.00003702        0.00008195        0.31660579        0.05462995
      65         -0.499117        1.000000        0.01038352        0.01548979        0.03616715        0.35871186
      66         -0.492545        1.000000        0.00660987        0.00978854        0.04560163        0.38224496
      67         -0.489167        1.000000        0.00804696        0.03689125        0.35002321        0.04460151
      68         -0.482440        1.000000        0.00624164        0.00775043        0.22925288        0.20004399
      69         -0.477993        1.000000        0.00614830        0.01975933        0.00903427        0.40648808
      70         -0.463428        1.000000        0.00782151        0.00738782        0.29439860        0.12970926
      71         -0.458536        1.000000        0.00863122        0.09558054        0.04306095        0.27499973
      72         -0.456715        1.000000        0.00060238        0.00450698        0.00873061        0.02292950
      73         -0.452924        1.000000        0.00000363        0.00045223        0.00053477        0.00056516
      74         -0.448952        1.000000        0.00001237        0.00124661        0.00054460        0.00133210
      75         -0.445150        1.000000        0.00002209        0.00017430        0.00016119        0.00064484
      76         -0.442463        1.000000        0.00002004        0.00021886        0.00023319        0.00087458
      77         -0.440054        1.000000        0.00000724        0.00094485        0.00057127        0.00054633
      78         -0.438067        1.000000        0.00001008        0.00008218        0.00119277        0.00067209
      79         -0.432961        1.000000        0.00000734        0.00017811        0.00020213        0.00066439
      80         -0.424625        1.000000        0.00008194        0.03216520        0.00668051        0.00014404
      81         -0.422438        1.000000        0.00003970        0.00793588        0.02130069        0.00737648
      82         -0.417003        1.000000        0.00001757        0.00245621        0.03226431        0.00085249
      83         -0.416282        1.000000        0.00000439        0.00928489        0.00496068        0.01700408
      84         -0.416083        1.000000        0.00001388        0.02761248        0.00089788        0.00344435
      85         -0.413824        1.000000        0.00000066        0.02882961        0.00008482        0.01030896
      86         -0.411606        1.000000        0.00008782        0.01018004        0.02661041        0.00210734
      87         -0.411570        1.000000        0.00020464        0.00536959        0.01982520        0.01809034
      88         -0.410237        1.000000        0.00001649        0.02760348        0.00614296        0.00192998
      89         -0.407808        1.000000        0.00012755        0.03145468        0.01869398        0.00001554
      90         -0.401402        1.000000        0.00000978        0.02708883        0.00673878        0.00464229
      91         -0.399621        1.000000        0.00000037        0.01037026        0.00715996        0.01930908
      92         -0.395424        1.000000        0.00000013        0.00707137        0.02086477        0.01369865
      93         -0.394286        1.000000        0.00000015        0.02332162        0.01424390        0.00063529
      94         -0.305807        1.000000        0.00000215        0.00000544        0.00000336        0.00001438
      95         -0.292671        1.000000        0.00010872        0.00047264        0.00004759        0.00031402
      96         -0.290742        1.000000        0.00001868        0.00002378        0.00004447        0.00000488
      97         -0.277959        1.000000        0.00009275        0.00027994        0.00008023        0.00012428
      98         -0.271335        1.000000        0.00028994        0.00046753        0.00002915        0.00080434
      99         -0.265657        1.000000        0.00013511        0.00065790        0.00019109        0.00006437
     100         -0.262076        1.000000        0.00028655        0.00049655        0.00068985        0.00031523
     101         -0.259141        1.000000        0.00008463        0.00048789        0.00002490        0.00012603
     102         -0.258218        1.000000        0.00049060        0.00067704        0.00010368        0.00076251
     103         -0.257284        1.000000        0.00003399        0.00020060        0.00004488        0.00004400
     104         -0.255523        1.000000        0.00078764        0.00058063        0.00026897        0.00058550
     105         -0.252997        1.000000        0.00057938        0.00008853        0.00151273        0.00015746
     106         -0.252594        1.000000        0.00070376        0.00030270        0.00116993        0.00017129
     107         -0.250850        1.000000        0.00018292        0.00051917        0.00025710        0.00019343
     108         -0.249115        1.000000        0.00017213        0.00027095        0.00038253        0.00005134
     109         -0.245865        1.000000        0.00002772        0.00001464        0.00030488        0.00007124
     110         -0.244410        1.000000        0.00013786        0.00070065        0.00007146        0.00019254
     111         -0.243458        1.000000        0.00016674        0.00003410        0.00013724        0.00007424
     112         -0.240692        1.000000        0.00026899        0.00057117        0.00040851        0.00017302
     113         -0.239740        1.000000        0.00003081        0.00001019        0.00006851        0.00030293
     114         -0.239440        1.000000        0.00064654        0.00059499        0.00025863        0.00143642
     115         -0.237180        1.000000        0.00107300        0.00027996        0.00117904        0.00026935
     116         -0.236436        1.000000        0.00016538        0.00021186        0.00022177        0.00011488
     117         -0.235676        1.000000        0.00009388        0.00071415        0.00024462        0.00049762
     118         -0.233864        1.000000        0.00059650        0.00033811        0.00013564        0.00042017
     119         -0.232615        1.000000        0.00043997        0.00037745        0.00027865        0.00029008
     120         -0.230261        1.000000        0.00039097        0.00162314        0.00011545        0.00054087
     121         -0.228598        1.000000        0.00078767        0.00036511        0.00062900        0.00037155
     122         -0.226913        1.000000        0.00029029        0.00122666        0.00014725        0.00052700
     123         -0.225839        1.000000        0.00075968        0.00100128        0.00136804        0.00024038
     124         -0.225418        1.000000        0.00023828        0.00014911        0.00023013        0.00007113
     125         -0.221864        1.000000        0.00134546        0.00033329        0.00091789        0.00042837
     126         -0.221272        1.000000        0.00237133        0.00214103        0.00024409        0.00217946
     127         -0.218736        1.000000        0.00049904        0.00057427        0.00017802        0.00050755
     128         -0.218104        1.000000        0.00125355        0.00092942        0.00039985        0.00114505
     129         -0.216747        1.000000        0.00004364        0.00018434        0.00019206        0.00095823
     130         -0.214724        1.000000        0.00126294        0.00114484        0.00197457        0.00061869
     131         -0.213701        1.000000        0.00041921        0.00939563        0.00011269        0.00138297
     132         -0.211304        1.000000        0.00017082        0.00031164        0.00012442        0.00034706
     133         -0.210298        1.000000        0.00017393        0.00025613        0.00024441        0.00075730
     134         -0.208405        1.000000        0.00021473        0.00072323        0.00020694        0.00047229
     135         -0.207479        1.000000        0.00208589        0.00026089        0.00118505        0.00135350
     136         -0.206749        1.000000        0.00023224        0.00055557        0.00020251        0.00017847
     137         -0.205856        1.000000        0.00008865        0.00021165        0.00028149        0.00026621
     138         -0.204829        1.000000        0.00027388        0.00111538        0.00043546        0.00042397
     139         -0.204608        1.000000        0.00016290        0.00142022        0.00020908        0.00013634
     140         -0.203871        1.000000        0.00016002        0.00010715        0.00038947        0.00006269
     141         -0.202630        1.000000        0.00041642        0.00032854        0.00012973        0.00010248
     142         -0.201721        1.000000        0.00017584        0.00008073        0.00003210        0.00019507
     143         -0.199739        1.000000        0.00038175        0.00043765        0.00011505        0.00019594
     144         -0.198817        1.000000        0.00006225        0.00010345        0.00006165        0.00005307
     145         -0.198481        1.000000        0.00007819        0.00041100        0.00009373        0.00016249
     146         -0.197401        1.000000        0.00003291        0.00061204        0.00006325        0.00012352
     147         -0.196945        1.000000        0.00022285        0.00047305        0.00086383        0.00028291
     148         -0.196318        1.000000        0.00038421        0.00081034        0.00025965        0.00028109
     149         -0.195369        1.000000        0.00050854        0.00136598        0.00041768        0.00027314
     150         -0.194362        1.000000        0.00004088        0.00021961        0.00281608        0.00026104
     151         -0.193771        1.000000        0.00090613        0.00134736        0.00010744        0.00005020
     152         -0.193423        1.000000        0.00015677        0.00043534        0.00096904        0.00008602
     153         -0.192988        1.000000        0.00094992        0.00265898        0.00033883        0.00036157
     154         -0.192036        1.000000        0.00067367        0.00213276        0.00134688        0.00053517
     155         -0.191745        1.000000        0.00008010        0.00033665        0.00018933        0.00005889
     156         -0.190630        1.000000        0.00057346        0.00200077        0.00017267        0.00054195
     157         -0.190078        1.000000        0.00055340        0.00213112        0.00005974        0.00041154
     158         -0.189313        1.000000        0.00028780        0.00119888        0.00007924        0.00037446
     159         -0.188746        1.000000        0.00065283        0.00181061        0.00025160        0.00039961
     160         -0.188147        1.000000        0.00032703        0.00059998        0.00056322        0.00020145
     161         -0.187261        1.000000        0.00017655        0.00009803        0.00184253        0.00038631
     162         -0.186588        1.000000        0.00060835        0.00280275        0.00015830        0.00071844
     163         -0.185264        1.000000        0.00009152        0.00018783        0.00028260        0.00010885
     164         -0.185163        1.000000        0.00018704        0.00080598        0.00036517        0.00034611
     165         -0.184687        1.000000        0.00041789        0.00021630        0.00029960        0.00007423
     166         -0.184294        1.000000        0.00023341        0.00039941        0.00003045        0.00012805
     167         -0.182998        1.000000        0.00008964        0.00003733        0.00011338        0.00005870
     168         -0.182538        1.000000        0.00009293        0.00009774        0.00007565        0.00008332
     169         -0.181890        1.000000        0.00013591        0.00016116        0.00012578        0.00006163
     170         -0.181782        1.000000        0.00011344        0.00003978        0.00016045        0.00003325
     171         -0.180538        1.000000        0.00003662        0.00005580        0.00007948        0.00004318
     172         -0.179791        1.000000        0.00035371        0.00001591        0.00028761        0.00015597
     173         -0.178962        1.000000        0.00003235        0.00026637        0.00015922        0.00003537
     174         -0.178751        1.000000        0.00002807        0.00003024        0.00076735        0.00010058
     175         -0.178352        1.000000        0.00007742        0.00007231        0.00028129        0.00003023
     176         -0.177810        1.000000        0.00005716        0.00006436        0.00005761        0.00002866
     177         -0.177193        1.000000        0.00006984        0.00018168        0.00001285        0.00006896
     178         -0.176740        1.000000        0.00013001        0.00020457        0.00002274        0.00002684
     179         -0.176271        1.000000        0.00003587        0.00007459        0.00039739        0.00004597
     180         -0.175913        1.000000        0.00019050        0.00048146        0.00002176        0.00015386
     181         -0.175469        1.000000        0.00003872        0.00014381        0.00005041        0.00002532
     182         -0.173988        1.000000        0.00004670        0.00008491        0.00006159        0.00005907
     183         -0.173604        1.000000        0.00006465        0.00006091        0.00018215        0.00002525
     184         -0.173184        1.000000        0.00005340        0.00003202        0.00007183        0.00003860
     185         -0.173126        1.000000        0.00004856        0.00005204        0.00003223        0.00001492
     186         -0.172902        1.000000        0.00006766        0.00029964        0.00001851        0.00007487
     187         -0.172763        1.000000        0.00002588        0.00001959        0.00010277        0.00002901
     188         -0.172500        1.000000        0.00004330        0.00008135        0.00002794        0.00005125
     189         -0.172455        1.000000        0.00001583        0.00005804        0.00002200        0.00006988
     190         -0.172083        1.000000        0.00004826        0.00004486        0.00004542        0.00001772
     191         -0.171702        1.000000        0.00001408        0.00006648        0.00002149        0.00003192
     192         -0.171659        1.000000        0.00006103        0.00007671        0.00000917        0.00006006
     193         -0.171569        1.000000        0.00000694        0.00000573        0.00002076        0.00002123
     194         -0.171162        1.000000        0.00000379        0.00003772        0.00005826        0.00003733
     195         -0.170858        1.000000        0.00000192        0.00001153        0.00001662        0.00000457
     196         -0.170665        0.000000        0.00001911        0.00002266        0.00000371        0.00002782
     197         -0.170502        0.000000        0.00000819        0.00002517        0.00003142        0.00002877
     198         -0.170357        0.000000        0.00000692        0.00007223        0.00001715        0.00002993
     199         -0.170251        0.000000        0.00001207        0.00003349        0.00001300        0.00003419
     200         -0.169705        0.000000        0.00002489        0.00002534        0.00001354        0.00002979
     201         -0.166208        0.000000        0.00000481        0.00000913        0.00000378        0.00000130
     202         -0.065400        0.000000        0.00040088        0.00046806        0.00006220        0.00012922
     203         -0.060777        0.000000        0.00009503        0.00006568        0.00013530        0.00002508
     204         -0.056342        0.000000        0.00007972        0.00017861        0.00003032        0.00003807
     205         -0.047621        0.000000        0.00007852        0.00008996        0.00020618        0.00011654
     206         -0.044222        0.000000        0.00022037        0.00001430        0.00019438        0.00012988
     207         -0.043035        0.000000        0.00012973        0.00017230        0.00003264        0.00003996
     208         -0.042447        0.000000        0.00022017        0.00008842        0.00006512        0.00001845
     209         -0.041314        0.000000        0.00013485        0.00008974        0.00005455        0.00004277
     210         -0.039467        0.000000        0.00010041        0.00014790        0.00004702        0.00012386
     211         -0.037261        0.000000        0.00002506        0.00012322        0.00007456        0.00001259
     212         -0.035264        0.000000        0.00011899        0.00006682        0.00017703        0.00008639
     213         -0.032861        0.000000        0.00013796        0.00003330        0.00023244        0.00010148
     214         -0.032225        0.000000        0.00016789        0.00017505        0.00016043        0.00003568
     215         -0.031829        0.000000        0.00023398        0.00012302        0.00002320        0.00009540
     216         -0.031045        0.000000        0.00008142        0.00003300        0.00006295        0.00011922
     217         -0.028599        0.000000        0.00010020        0.00002131        0.00008443        0.00002902
     218         -0.027290        0.000000        0.00003328        0.00002022        0.00013294        0.00003717
     219         -0.022878        0.000000        0.00006666        0.00009340        0.00004669        0.00001664
     220         -0.018544        0.000000        0.00012183        0.00003293        0.00001624        0.00001006
     221         -0.017664        0.000000        0.00018669        0.00014415        0.00006950        0.00015538
     222         -0.017045        0.000000        0.00007513        0.00009296        0.00001392        0.00006543
     223         -0.014422        0.000000        0.00028015        0.00046014        0.00005183        0.00013216
     224         -0.012507        0.000000        0.00003044        0.00001484        0.00029573        0.00004508
     225         -0.003979        0.000000        0.00032811        0.00017229        0.00045654        0.00015143
     226          0.079033        0.000000        0.10950537        0.01813147        0.03188301        0.19758694
     227          0.086726        0.000000        0.10842096        0.01781241        0.20609775        0.02308420
     228          0.088490        0.000000        0.13291866        0.01176628        0.02806570        0.18043681
     229          0.095384        0.000000        0.12634165        0.00456546        0.06554162        0.16174974
     230          0.100474        0.000000        0.12606032        0.00228191        0.02846655        0.20413962
     231          0.103429        0.000000        0.10002218        0.06133844        0.02697616        0.17381703
     232          0.104759        0.000000        0.09666086        0.00428697        0.18160767        0.07905550
     233          0.141153        0.000000        0.04035425        0.00012533        0.27570918        0.01902438
     234          0.153357        0.000000        0.05522494        0.16159938        0.00482549        0.11225679
     235          0.158098        0.000000        0.03600454        0.07536455        0.14284600        0.08150126
     236          0.170866        0.000000        0.00271639        0.20313160        0.12236691        0.00040179
     237          0.207904        0.000000        0.01919631        0.23457299        0.00224573        0.07789475
     238          0.217521        0.000000        0.11154594        0.01420919        0.04751582        0.17147168
     239          0.246945        0.000000        0.10072612        0.03188385        0.00120068        0.20426427
     240          0.275971        0.000000        0.00019558        0.04535134        0.25630548        0.02146767
     241          0.284573        0.000000        0.09968130        0.10284662        0.13220339        0.00198144
     242          0.291103        0.000000        0.00293441        0.30243649        0.00076617        0.01501791
     243          0.294289        0.000000        0.11719678        0.05438764        0.13677803        0.02740781
     244          0.297619        0.000000        0.00209192        0.11357078        0.05557490        0.15047654
     245          0.299191        0.000000        0.00603205        0.16884855        0.08317391        0.05579456
     246          0.300676        0.000000        0.00693146        0.06215963        0.13966348        0.10739668
     247          0.300986        0.000000        0.17428687        0.11049898        0.03560938        0.02011356
     248          0.302438        0.000000        0.00402119        0.21228696        0.08832487        0.01277957
     249          0.308149        0.000000        0.00009921        0.18949144        0.10545886        0.02156901
     250          0.321630        0.000000        0.17269849        0.01143329        0.00339311        0.14899382
     251          0.332158        0.000000        0.18412600        0.02106074        0.06941181        0.05839103
     252          0.332808        0.000000        0.23725891        0.00720828        0.05339735        0.04230465
     253          0.349046        0.000000        0.24364764        0.02978696        0.02157996        0.05071327
     254          0.438646        0.000000        0.00015617        0.00062137        0.02191598        0.00224858
     255          0.445245        0.000000        0.00055831        0.01667546        0.00006892        0.00004521
     256          0.448684        0.000000        0.00015364        0.01109815        0.01080408        0.00183990
     257          0.450006        0.000000        0.00001636        0.00238101        0.00069869        0.01383932
     258          0.450366        0.000000        0.00000454        0.00598343        0.00779257        0.00018885
     259          0.452847        0.000000        0.00074091        0.01509495        0.00410612        0.00388356