# Projected DOS for atomic kind H at iteration step i = 0, E(Fermi) =    -0.170319 a.u.
#     MO Eigenvalue [a.u.]      Occupation                 s
       1         -0.976464        1.000000        0.26779841
       2         -0.972439        1.000000        0.26973949
       3         -0.967374        1.000000        0.27157140
       4         -0.957698        1.000000        0.26699738
       5         -0.950021        1.000000        0.26616753
       6         -0.939634        1.000000        0.28075400
       7         -0.933214        1.000000        0.28315392
       8         -0.709510        1.000000        0.32660007
       9         -0.709195        1.000000        0.33794572
      10         -0.702782        1.000000        0.33669174
      11         -0.697565        1.000000        0.34061445
      12         -0.694916        1.000000        0.34476459
      13         -0.682712        1.000000        0.34699952
      14         -0.678213        1.000000        0.34704709
      15         -0.625945        1.000000        0.00014959
      16         -0.615356        1.000000        0.00853542
      17         -0.614876        1.000000        0.04830717
      18         -0.608504        1.000000        0.33440335
      19         -0.606295        1.000000        0.10327600
      20         -0.598077        1.000000        0.02176298
      21         -0.597084        1.000000        0.31926692
      22         -0.595968        1.000000        0.16987393
      23         -0.588012        1.000000        0.28842135
      24         -0.587360        1.000000        0.11396404
      25         -0.586248        1.000000        0.11360090
      26         -0.585135        1.000000        0.28975959
      27         -0.584373        1.000000        0.18185482
      28         -0.583058        1.000000        0.07978881
      29         -0.580774        1.000000        0.06410630
      30         -0.580571        1.000000        0.01397258
      31         -0.579839        1.000000        0.02973222
      32         -0.578758        1.000000        0.30298576
      33         -0.578166        1.000000        0.12702698
      34         -0.576826        1.000000        0.11394550
      35         -0.575465        1.000000        0.03445371
      36         -0.574350        1.000000        0.01552922
      37         -0.572232        1.000000        0.03261325
      38         -0.570046        1.000000        0.04553933
      39         -0.569185        1.000000        0.27208383
      40         -0.568563        1.000000        0.11366472
      41         -0.567311        1.000000        0.04977228
      42         -0.567248        1.000000        0.00650455
      43         -0.565999        1.000000        0.00298554
      44         -0.564743        1.000000        0.04010054
      45         -0.564175        1.000000        0.00268764
      46         -0.563985        1.000000        0.04645023
      47         -0.562036        1.000000        0.15335523
      48         -0.559279        1.000000        0.13875265
      49         -0.558539        1.000000        0.08251982
      50         -0.556542        1.000000        0.03930881
      51         -0.554317        1.000000        0.17886392
      52         -0.552887        1.000000        0.05609666
      53         -0.552627        1.000000        0.10144898
      54         -0.552093        1.000000        0.01262720
      55         -0.551218        1.000000        0.01100847
      56         -0.550634        1.000000        0.00459212
      57         -0.550511        1.000000        0.01110113
      58         -0.550112        1.000000        0.05990434
      59         -0.549821        1.000000        0.10982612
      60         -0.545748        1.000000        0.04482842
      61         -0.544643        1.000000        0.01491935
      62         -0.544306        1.000000        0.00121993
      63         -0.544008        1.000000        0.00273324
      64         -0.543437        1.000000        0.17770288
      65         -0.498791        1.000000        0.20294213
      66         -0.492217        1.000000        0.18733389
      67         -0.488828        1.000000        0.18787864
      68         -0.482106        1.000000        0.18855038
      69         -0.477668        1.000000        0.18648958
      70         -0.463095        1.000000        0.17148945
      71         -0.458194        1.000000        0.16537762
      72         -0.456196        1.000000        0.01234581
      73         -0.452406        1.000000        0.00078231
      74         -0.448563        1.000000        0.00194157
      75         -0.444785        1.000000        0.00082580
      76         -0.441988        1.000000        0.00087761
      77         -0.439669        1.000000        0.00176657
      78         -0.437794        1.000000        0.00121641
      79         -0.432708        1.000000        0.00656921
      80         -0.424313        1.000000        0.42250078
      81         -0.422124        1.000000        0.41979603
      82         -0.416688        1.000000        0.41944920
      83         -0.415966        1.000000        0.41767273
      84         -0.415769        1.000000        0.41528707
      85         -0.413497        1.000000        0.41514212
      86         -0.411295        1.000000        0.42387149
      87         -0.411255        1.000000        0.42396546
      88         -0.409914        1.000000        0.41896695
      89         -0.407495        1.000000        0.42386504
      90         -0.401096        1.000000        0.42024000
      91         -0.399313        1.000000        0.41975371
      92         -0.395112        1.000000        0.42140765
      93         -0.393980        1.000000        0.42074907
      94         -0.305390        1.000000        0.00006488
      95         -0.292033        1.000000        0.00020774
      96         -0.289869        1.000000        0.00013970
      97         -0.277409        1.000000        0.00025533
      98         -0.270673        1.000000        0.00090057
      99         -0.264828        1.000000        0.00025755
     100         -0.261393        1.000000        0.00038618
     101         -0.258607        1.000000        0.00024332
     102         -0.257577        1.000000        0.00056676
     103         -0.256673        1.000000        0.00015390
     104         -0.255171        1.000000        0.00062915
     105         -0.252621        1.000000        0.00097216
     106         -0.252129        1.000000        0.00070059
     107         -0.250372        1.000000        0.00034547
     108         -0.248660        1.000000        0.00044508
     109         -0.245294        1.000000        0.00033739
     110         -0.244009        1.000000        0.00047484
     111         -0.243009        1.000000        0.00034072
     112         -0.240242        1.000000        0.00045366
     113         -0.239422        1.000000        0.00034323
     114         -0.238912        1.000000        0.00071636
     115         -0.236781        1.000000        0.00132244
     116         -0.235962        1.000000        0.00036963
     117         -0.235287        1.000000        0.00035620
     118         -0.233490        1.000000        0.00064733
     119         -0.232012        1.000000        0.00046807
     120         -0.229889        1.000000        0.00049033
     121         -0.228244        1.000000        0.00075644
     122         -0.226518        1.000000        0.00062358
     123         -0.225501        1.000000        0.00085766
     124         -0.225074        1.000000        0.00051386
     125         -0.221353        1.000000        0.00118963
     126         -0.220810        1.000000        0.00203789
     127         -0.218300        1.000000        0.00052235
     128         -0.217665        1.000000        0.00111455
     129         -0.216391        1.000000        0.00054816
     130         -0.214401        1.000000        0.00110156
     131         -0.213335        1.000000        0.00155736
     132         -0.210915        1.000000        0.00056612
     133         -0.209879        1.000000        0.00082226
     134         -0.208041        1.000000        0.00052621
     135         -0.207105        1.000000        0.00198804
     136         -0.206428        1.000000        0.00047697
     137         -0.205521        1.000000        0.00045448
     138         -0.204472        1.000000        0.00052224
     139         -0.204232        1.000000        0.00097535
     140         -0.203568        1.000000        0.00035477
     141         -0.202194        1.000000        0.00067412
     142         -0.201376        1.000000        0.00028180
     143         -0.199326        1.000000        0.00051845
     144         -0.198563        1.000000        0.00011560
     145         -0.198062        1.000000        0.00028201
     146         -0.197100        1.000000        0.00029262
     147         -0.196478        1.000000        0.00060937
     148         -0.195932        1.000000        0.00048557
     149         -0.195033        1.000000        0.00078330
     150         -0.193886        1.000000        0.00067176
     151         -0.193243        1.000000        0.00072160
     152         -0.193020        1.000000        0.00040698
     153         -0.192607        1.000000        0.00142394
     154         -0.191635        1.000000        0.00118372
     155         -0.191311        1.000000        0.00019900
     156         -0.190270        1.000000        0.00093758
     157         -0.189740        1.000000        0.00102053
     158         -0.188757        1.000000        0.00058126
     159         -0.188269        1.000000        0.00108682
     160         -0.187681        1.000000        0.00031979
     161         -0.186637        1.000000        0.00066880
     162         -0.186318        1.000000        0.00114579
     163         -0.185013        1.000000        0.00025569
     164         -0.184655        1.000000        0.00021532
     165         -0.184383        1.000000        0.00033685
     166         -0.183998        1.000000        0.00039781
     167         -0.182824        1.000000        0.00015142
     168         -0.182294        1.000000        0.00009603
     169         -0.181305        1.000000        0.00019015
     170         -0.180812        1.000000        0.00011749
     171         -0.180121        1.000000        0.00009376
     172         -0.179368        1.000000        0.00062971
     173         -0.178544        1.000000        0.00013855
     174         -0.178299        1.000000        0.00022357
     175         -0.178039        1.000000        0.00027543
     176         -0.177198        1.000000        0.00015671
     177         -0.176653        1.000000        0.00042710
     178         -0.176180        1.000000        0.00024316
     179         -0.175905        1.000000        0.00009623
     180         -0.175585        1.000000        0.00029599
     181         -0.175051        1.000000        0.00037956
     182         -0.173573        1.000000        0.00021458
     183         -0.172965        1.000000        0.00018353
     184         -0.172652        1.000000        0.00008315
     185         -0.172589        1.000000        0.00008352
     186         -0.172486        1.000000        0.00017862
     187         -0.172246        1.000000        0.00011342
     188         -0.171896        1.000000        0.00006880
     189         -0.171205        1.000000        0.00014128
     190         -0.171176        1.000000        0.00014341
     191         -0.170725        1.000000        0.00009576
     192         -0.170713        1.000000        0.00009197
     193         -0.170424        1.000000        0.00009571
     194         -0.170319        1.000000        0.00005731
     195         -0.170233        0.000000        0.00006330
     196         -0.169721        0.000000        0.00006421
     197         -0.169476        0.000000        0.00005443
     198         -0.169364        0.000000        0.00006839
     199         -0.169228        0.000000        0.00005590
     200         -0.168547        0.000000        0.00007866
     201         -0.165763        0.000000        0.00000900
     202         -0.065056        0.000000        0.00064986
     203         -0.060334        0.000000        0.00018799
     204         -0.056039        0.000000        0.00021269
     205         -0.047398        0.000000        0.00030311
     206         -0.043912        0.000000        0.00045321
     207         -0.042699        0.000000        0.00024174
     208         -0.042002        0.000000        0.00030690
     209         -0.040950        0.000000        0.00020584
     210         -0.039076        0.000000        0.00031514
     211         -0.036942        0.000000        0.00019393
     212         -0.034960        0.000000        0.00032846
     213         -0.032563        0.000000        0.00029188
     214         -0.031885        0.000000        0.00029872
     215         -0.031379        0.000000        0.00044071
     216         -0.030644        0.000000        0.00010585
     217         -0.028282        0.000000        0.00023815
     218         -0.026988        0.000000        0.00020263
     219         -0.022580        0.000000        0.00018167
     220         -0.018135        0.000000        0.00017607
     221         -0.017228        0.000000        0.00030159
     222         -0.016683        0.000000        0.00022703
     223         -0.014019        0.000000        0.00072386
     224         -0.012047        0.000000        0.00029513
     225         -0.003510        0.000000        0.00091005
     226          0.079345        0.000000        0.00774767
     227          0.087049        0.000000        0.00437855
     228          0.088808        0.000000        0.01262093
     229          0.095704        0.000000        0.02424859
     230          0.100781        0.000000        0.02634743
     231          0.103741        0.000000        0.00333653
     232          0.105069        0.000000        0.00297718
     233          0.141465        0.000000        0.64369360
     234          0.153662        0.000000        0.65965972
     235          0.158387        0.000000        0.64261004
     236          0.171177        0.000000        0.67028468
     237          0.208224        0.000000        0.66422444
     238          0.217822        0.000000        0.64269825
     239          0.247262        0.000000        0.65510586
     240          0.276283        0.000000        0.66504252
     241          0.284896        0.000000        0.65497356
     242          0.291419        0.000000        0.66438411
     243          0.294611        0.000000        0.65511981
     244          0.297918        0.000000        0.66014197
     245          0.299493        0.000000        0.66364739
     246          0.300978        0.000000        0.66233225
     247          0.301297        0.000000        0.64552460
     248          0.302725        0.000000        0.66456480
     249          0.308435        0.000000        0.66242588
     250          0.321945        0.000000        0.64354453
     251          0.332454        0.000000        0.64177867
     252          0.333109        0.000000        0.63419895
     253          0.349335        0.000000        0.63093747
     254          0.438918        0.000000        0.58407435
     255          0.445516        0.000000        0.58840965
     256          0.448960        0.000000        0.58939959
     257          0.450290        0.000000        0.58764230
     258          0.450642        0.000000        0.58920653
     259          0.453127        0.000000        0.58617405
     260          0.454784        0.000000        0.58731256
     261          0.456304        0.000000        0.58265841
     262          0.456666        0.000000        0.58553404
     263          0.457082        0.000000        0.58456990
     264          0.468368        0.000000        0.58237789
     265          0.471733        0.000000        0.58065031
     266          0.474374        0.000000        0.58131623
     267          0.478110        0.000000        0.58217683
     268          0.543055        0.000000        0.55338343
     269          0.560332        0.000000        0.55167128
     270          0.562447        0.000000        0.55243226
     271          0.563117        0.000000        0.55220610
     272          0.564652        0.000000        0.55162792
     273          0.569109        0.000000        0.55378701
     274          0.572065        0.000000        0.55204535
