# Projected DOS for atomic kind Pb at iteration step i = 0, E(Fermi) =    -0.170319 a.u.
#     MO Eigenvalue [a.u.]      Occupation                 s                py                pz                px
       1         -0.976464        1.000000        0.00000001        0.00000012        0.00000015        0.00000008
       2         -0.972439        1.000000        0.00000001        0.00000009        0.00000003        0.00000014
       3         -0.967374        1.000000        0.00000155        0.00002261        0.00002739        0.00001160
       4         -0.957698        1.000000        0.00000006        0.00000048        0.00000044        0.00000042
       5         -0.950021        1.000000        0.00000039        0.00000510        0.00000861        0.00000192
       6         -0.939634        1.000000        0.00000020        0.00000166        0.00000260        0.00000083
       7         -0.933214        1.000000        0.00000012        0.00000096        0.00000079        0.00000135
       8         -0.709510        1.000000        0.00000324        0.00000528        0.00000885        0.00000535
       9         -0.709195        1.000000        0.00000148        0.00000285        0.00000166        0.00000086
      10         -0.702782        1.000000        0.00004971        0.00009312        0.00007771        0.00012152
      11         -0.697565        1.000000        0.00000737        0.00001252        0.00001309        0.00001450
      12         -0.694916        1.000000        0.00001976        0.00001627        0.00002249        0.00000178
      13         -0.682712        1.000000        0.00003157        0.00003683        0.00002515        0.00002346
      14         -0.678213        1.000000        0.00000558        0.00000814        0.00000241        0.00000820
      15         -0.625945        1.000000        0.00082233        0.00083201        0.00035519        0.00001040
      16         -0.615356        1.000000        0.00635201        0.00570306        0.00143074        0.00009363
      17         -0.614876        1.000000        0.00312287        0.00204282        0.00008462        0.00286775
      18         -0.608504        1.000000        0.00006921        0.00001132        0.00000511        0.00002454
      19         -0.606295        1.000000        0.00900809        0.00201882        0.00024907        0.00449508
      20         -0.598077        1.000000        0.09699140        0.00128391        0.01313269        0.00011361
      21         -0.597084        1.000000        0.00268057        0.00006695        0.00096393        0.00031893
      22         -0.595968        1.000000        0.01196608        0.00095115        0.00079431        0.00277691
      23         -0.588012        1.000000        0.00626156        0.00031783        0.00011670        0.00022479
      24         -0.587360        1.000000        0.03250823        0.00195735        0.01360373        0.00118881
      25         -0.586248        1.000000        0.02672918        0.00729271        0.00738279        0.00083339
      26         -0.585135        1.000000        0.00309139        0.00024628        0.00029337        0.00020437
      27         -0.584373        1.000000        0.02511762        0.00126978        0.00676665        0.00087146
      28         -0.583058        1.000000        0.08238864        0.00019116        0.01190063        0.00163885
      29         -0.580774        1.000000        0.04786273        0.01356004        0.00757305        0.00039797
      30         -0.580571        1.000000        0.01294330        0.00268739        0.00303598        0.00084229
      31         -0.579839        1.000000        0.05039888        0.01758854        0.00336223        0.00154132
      32         -0.578758        1.000000        0.00170500        0.00077366        0.00027879        0.00018587
      33         -0.578166        1.000000        0.02906995        0.01289578        0.00456101        0.00111449
      34         -0.576826        1.000000        0.02841758        0.00483932        0.00365286        0.00131145
      35         -0.575465        1.000000        0.00894069        0.00174171        0.00083918        0.00018276
      36         -0.574350        1.000000        0.00347857        0.00017735        0.00025282        0.00098252
      37         -0.572232        1.000000        0.07449784        0.00232462        0.00419738        0.00418285
      38         -0.570046        1.000000        0.00881907        0.00202628        0.00816454        0.02188083
      39         -0.569185        1.000000        0.00382966        0.00038273        0.00162949        0.00120182
      40         -0.568563        1.000000        0.00903936        0.00173931        0.00825315        0.00544039
      41         -0.567311        1.000000        0.01020163        0.00374248        0.00285671        0.02723278
      42         -0.567248        1.000000        0.00572268        0.01649058        0.01612293        0.00797158
      43         -0.565999        1.000000        0.00011335        0.00025924        0.00048737        0.00270309
      44         -0.564743        1.000000        0.08413877        0.00018062        0.00452770        0.01760819
      45         -0.564175        1.000000        0.01145405        0.00013043        0.00747044        0.02617238
      46         -0.563985        1.000000        0.08393635        0.00148809        0.00428827        0.01215193
      47         -0.562036        1.000000        0.01564245        0.00364325        0.00697113        0.00438148
      48         -0.559279        1.000000        0.03560526        0.00544022        0.00671050        0.00333286
      49         -0.558539        1.000000        0.02857697        0.01090455        0.00746132        0.00420728
      50         -0.556542        1.000000        0.02435859        0.01944503        0.00663981        0.00449692
      51         -0.554317        1.000000        0.02225810        0.00248747        0.00545318        0.00364189
      52         -0.552887        1.000000        0.03550963        0.00201072        0.00483961        0.01470444
      53         -0.552627        1.000000        0.03210446        0.00122192        0.00873682        0.00823398
      54         -0.552093        1.000000        0.00446083        0.01365620        0.00273064        0.01057529
      55         -0.551218        1.000000        0.00066327        0.01269734        0.01371100        0.00019899
      56         -0.550634        1.000000        0.00428007        0.00448921        0.02237636        0.00522626
      57         -0.550511        1.000000        0.00111722        0.01706869        0.00983372        0.00433821
      58         -0.550112        1.000000        0.01181085        0.01516398        0.00391160        0.00318840
      59         -0.549821        1.000000        0.00713824        0.00781104        0.00521335        0.00452714
      60         -0.545748        1.000000        0.00111258        0.00169926        0.02188455        0.00404166
      61         -0.544643        1.000000        0.00616253        0.00046605        0.00657623        0.01722006
      62         -0.544306        1.000000        0.00363626        0.01775556        0.00462645        0.00108609
      63         -0.544008        1.000000        0.00331694        0.00143572        0.00033647        0.01640866
      64         -0.543437        1.000000        0.00421890        0.00316559        0.00397965        0.00605537
      65         -0.498791        1.000000        0.00017880        0.00000860        0.00001290        0.00001413
      66         -0.492217        1.000000        0.00032360        0.00002045        0.00000070        0.00000415
      67         -0.488828        1.000000        0.00021322        0.00006491        0.00011660        0.00018562
      68         -0.482106        1.000000        0.00051234        0.00000833        0.00002640        0.00006025
      69         -0.477668        1.000000        0.00211049        0.00000275        0.00003505        0.00000541
      70         -0.463095        1.000000        0.01781204        0.00007164        0.00014695        0.00002544
      71         -0.458194        1.000000        0.03935529        0.00007796        0.00002738        0.00008480
      72         -0.456196        1.000000        0.62744008        0.00065925        0.00017679        0.00041936
      73         -0.452406        1.000000        0.72722934        0.00051262        0.00095897        0.00142245
      74         -0.448563        1.000000        0.75696308        0.00048311        0.00019064        0.00132928
      75         -0.444785        1.000000        0.75202207        0.00062839        0.00103409        0.00129820
      76         -0.441988        1.000000        0.74894810        0.00052915        0.00024737        0.00086468
      77         -0.439669        1.000000        0.75679029        0.00014293        0.00056172        0.00041949
      78         -0.437794        1.000000        0.76843258        0.00006737        0.00021607        0.00095261
      79         -0.432708        1.000000        0.76218433        0.00020252        0.00028079        0.00095228
      80         -0.424313        1.000000        0.00083127        0.00001042        0.00000621        0.00001813
      81         -0.422124        1.000000        0.00047267        0.00001156        0.00000318        0.00000506
      82         -0.416688        1.000000        0.00190380        0.00002255        0.00002526        0.00008443
      83         -0.415966        1.000000        0.00102683        0.00015067        0.00006906        0.00027287
      84         -0.415769        1.000000        0.00380462        0.00004569        0.00005209        0.00005407
      85         -0.413497        1.000000        0.00893301        0.00009748        0.00036802        0.00021521
      86         -0.411295        1.000000        0.00010168        0.00002499        0.00002623        0.00001022
      87         -0.411255        1.000000        0.00028348        0.00000525        0.00000042        0.00005924
      88         -0.409914        1.000000        0.00070403        0.00002655        0.00005718        0.00011708
      89         -0.407495        1.000000        0.00021716        0.00002219        0.00003497        0.00000241
      90         -0.401096        1.000000        0.00143500        0.00010805        0.00022610        0.00002453
      91         -0.399313        1.000000        0.00085288        0.00014934        0.00013192        0.00013522
      92         -0.395112        1.000000        0.00066618        0.00001939        0.00000854        0.00011244
      93         -0.393980        1.000000        0.00072815        0.00000909        0.00002559        0.00015241
      94         -0.305390        1.000000        0.00057760        0.01204474        0.00075714        0.00011786
      95         -0.292033        1.000000        0.00118324        0.01247392        0.01107464        0.00082471
      96         -0.289869        1.000000        0.00103445        0.00878884        0.00100305        0.01201109
      97         -0.277409        1.000000        0.00100926        0.04476159        0.01554993        0.02324691
      98         -0.270673        1.000000        0.00267140        0.05622726        0.16386882        0.00107638
      99         -0.264828        1.000000        0.00458087        0.05158844        0.06539382        0.09153778
     100         -0.261393        1.000000        0.00642528        0.04247262        0.03774652        0.16943547
     101         -0.258607        1.000000        0.00446890        0.05455842        0.13457889        0.05976439
     102         -0.257577        1.000000        0.00193978        0.01922278        0.18180871        0.03957240
     103         -0.256673        1.000000        0.00234492        0.14543477        0.10213537        0.00586599
     104         -0.255171        1.000000        0.00030032        0.07634443        0.01027112        0.09943965
     105         -0.252621        1.000000        0.00043824        0.03811570        0.00722233        0.10162154
     106         -0.252129        1.000000        0.00081488        0.01866729        0.02334826        0.16044293
     107         -0.250372        1.000000        0.00778465        0.08679982        0.10531213        0.04184000
     108         -0.248660        1.000000        0.00198997        0.04293910        0.02333536        0.15257379
     109         -0.245294        1.000000        0.00257577        0.13960585        0.04269153        0.03939062
     110         -0.244009        1.000000        0.00553540        0.10672825        0.05586392        0.08591043
     111         -0.243009        1.000000        0.00333089        0.09492644        0.05532887        0.04372479
     112         -0.240242        1.000000        0.00061118        0.02541146        0.03227046        0.08908940
     113         -0.239422        1.000000        0.00024777        0.00458870        0.00294461        0.00812682
     114         -0.238912        1.000000        0.00084901        0.07900042        0.06959441        0.01563479
     115         -0.236781        1.000000        0.00187403        0.09844511        0.05467123        0.04378368
     116         -0.235962        1.000000        0.00174021        0.10199371        0.04039439        0.01803657
     117         -0.235287        1.000000        0.00196116        0.03512391        0.07927970        0.02526733
     118         -0.233490        1.000000        0.00153836        0.02952925        0.01913519        0.09333584
     119         -0.232012        1.000000        0.00325531        0.12329054        0.04036550        0.02339530
     120         -0.229889        1.000000        0.00271822        0.03018657        0.10967832        0.07349477
     121         -0.228244        1.000000        0.00150006        0.01680360        0.11775689        0.05011322
     122         -0.226518        1.000000        0.00520638        0.07088161        0.05852038        0.08638013
     123         -0.225501        1.000000        0.00163348        0.00482233        0.04082380        0.02987811
     124         -0.225074        1.000000        0.00286719        0.07224134        0.07987091        0.04814241
     125         -0.221353        1.000000        0.00472542        0.02111926        0.03742627        0.04123769
     126         -0.220810        1.000000        0.00434687        0.01961468        0.02236827        0.03541526
     127         -0.218300        1.000000        0.00256133        0.01061157        0.02031742        0.02483124
     128         -0.217665        1.000000        0.00700105        0.01602979        0.02314123        0.04565995
     129         -0.216391        1.000000        0.00030850        0.00447987        0.00440998        0.00280175
     130         -0.214401        1.000000        0.00391200        0.01268395        0.02178321        0.00138846
     131         -0.213335        1.000000        0.00602900        0.01438877        0.01884246        0.01642914
     132         -0.210915        1.000000        0.00219991        0.00992025        0.00298050        0.01212538
     133         -0.209879        1.000000        0.00718466        0.02406535        0.00863342        0.01888833
     134         -0.208041        1.000000        0.00723477        0.01484247        0.01043153        0.01677927
     135         -0.207105        1.000000        0.00362652        0.00283271        0.02284906        0.00807475
     136         -0.206428        1.000000        0.00110856        0.00395031        0.00530657        0.00477480
     137         -0.205521        1.000000        0.00188832        0.00124031        0.00366844        0.00229353
     138         -0.204472        1.000000        0.00061515        0.00210762        0.00444766        0.00216327
     139         -0.204232        1.000000        0.00559030        0.01020805        0.00579736        0.01501613
     140         -0.203568        1.000000        0.00076577        0.00173391        0.00096714        0.00204568
     141         -0.202194        1.000000        0.00533672        0.00554688        0.00255104        0.00844416
     142         -0.201376        1.000000        0.00126085        0.00392401        0.00186188        0.00374461
     143         -0.199326        1.000000        0.00479869        0.00428973        0.00233483        0.00379777
     144         -0.198563        1.000000        0.00037697        0.00054461        0.00051213        0.00132243
     145         -0.198062        1.000000        0.00191688        0.00556037        0.00176440        0.00206991
     146         -0.197100        1.000000        0.00214760        0.00268159        0.00234883        0.00317508
     147         -0.196478        1.000000        0.01478769        0.02770779        0.01036319        0.00828137
     148         -0.195932        1.000000        0.00626806        0.00893215        0.00255349        0.00486998
     149         -0.195033        1.000000        0.00489899        0.00361040        0.00404836        0.00353087
     150         -0.193886        1.000000        0.00691994        0.00354289        0.00307124        0.00874034
     151         -0.193243        1.000000        0.01174320        0.00930912        0.00245342        0.01272074
     152         -0.193020        1.000000        0.01088099        0.00933483        0.00155708        0.01332825
     153         -0.192607        1.000000        0.01047271        0.00761026        0.00367193        0.00691937
     154         -0.191635        1.000000        0.00399505        0.00277602        0.00171330        0.00260651
     155         -0.191311        1.000000        0.00224440        0.00250778        0.00338638        0.00159161
     156         -0.190270        1.000000        0.01103082        0.00548601        0.00332435        0.00492953
     157         -0.189740        1.000000        0.00495034        0.00332917        0.00186364        0.00223238
     158         -0.188757        1.000000        0.02234578        0.01067695        0.00688574        0.01275018
     159         -0.188269        1.000000        0.00232017        0.00136308        0.00195989        0.00125183
     160         -0.187681        1.000000        0.00331985        0.00308430        0.00058011        0.00277747
     161         -0.186637        1.000000        0.00982211        0.00633383        0.00112494        0.00631218
     162         -0.186318        1.000000        0.00773184        0.00224638        0.00339355        0.00538714
     163         -0.185013        1.000000        0.00423950        0.00144549        0.00142430        0.00177460
     164         -0.184655        1.000000        0.00431362        0.00195188        0.00146013        0.00119317
     165         -0.184383        1.000000        0.00645501        0.00242967        0.00348662        0.00254281
     166         -0.183998        1.000000        0.00592485        0.00113468        0.00461950        0.00196544
     167         -0.182824        1.000000        0.00062330        0.00025079        0.00025086        0.00071800
     168         -0.182294        1.000000        0.00149778        0.00024531        0.00026384        0.00084273
     169         -0.181305        1.000000        0.01597504        0.00354826        0.00083542        0.00275985
     170         -0.180812        1.000000        0.00410560        0.00242872        0.00196446        0.00034878
     171         -0.180121        1.000000        0.00090290        0.00167337        0.00160860        0.00015414
     172         -0.179368        1.000000        0.00342775        0.00480856        0.00064972        0.00188702
     173         -0.178544        1.000000        0.00353940        0.00259291        0.00052136        0.00099539
     174         -0.178299        1.000000        0.00133888        0.00106141        0.00015489        0.00166939
     175         -0.178039        1.000000        0.00316353        0.00093576        0.00014256        0.00246510
     176         -0.177198        1.000000        0.02251579        0.00207853        0.00294028        0.00348065
     177         -0.176653        1.000000        0.01632687        0.00613402        0.00183160        0.00470470
     178         -0.176180        1.000000        0.01064429        0.00364932        0.00089066        0.00192518
     179         -0.175905        1.000000        0.00868919        0.00205774        0.00055926        0.00075830
     180         -0.175585        1.000000        0.00165504        0.00034832        0.00289965        0.00024385
     181         -0.175051        1.000000        0.01386969        0.00294255        0.00049537        0.00212790
     182         -0.173573        1.000000        0.02877194        0.00295779        0.00399913        0.01079712
     183         -0.172965        1.000000        0.01752377        0.00088045        0.00220771        0.00222699
     184         -0.172652        1.000000        0.00749506        0.00064003        0.00122840        0.00197388
     185         -0.172589        1.000000        0.01165886        0.00050427        0.00074507        0.00244360
     186         -0.172486        1.000000        0.01164897        0.00066488        0.00127508        0.00438806
     187         -0.172246        1.000000        0.01466383        0.00079721        0.00145168        0.00228191
     188         -0.171896        1.000000        0.00149127        0.00022369        0.00023987        0.00134637
     189         -0.171205        1.000000        0.00302513        0.00056083        0.00008986        0.00057987
     190         -0.171176        1.000000        0.00603273        0.00024306        0.00026394        0.00092448
     191         -0.170725        1.000000        0.02984341        0.00165487        0.00089567        0.00185762
     192         -0.170713        1.000000        0.02059283        0.00105223        0.00246889        0.00246920
     193         -0.170424        1.000000        0.03437231        0.00194318        0.00138710        0.00375046
     194         -0.170319        1.000000        0.01439625        0.00079831        0.00039735        0.00115720
     195         -0.170233        0.000000        0.04321350        0.00269177        0.00271313        0.00162309
     196         -0.169721        0.000000        0.03692771        0.00174789        0.00090044        0.00090158
     197         -0.169476        0.000000        0.01924879        0.00195088        0.00033811        0.00050670
     198         -0.169364        0.000000        0.07128819        0.00265533        0.00048952        0.00400040
     199         -0.169228        0.000000        0.03780895        0.00183595        0.00125052        0.00509637
     200         -0.168547        0.000000        0.09035096        0.00694041        0.00294339        0.00319718
     201         -0.165763        0.000000        0.00507324        0.00102961        0.00002272        0.00032161
     202         -0.065056        0.000000        0.00476012        0.32486186        0.33683236        0.06009701
     203         -0.060334        0.000000        0.00512899        0.37638378        0.25622660        0.07799967
     204         -0.056039        0.000000        0.00362715        0.62735569        0.01912050        0.08913846
     205         -0.047398        0.000000        0.00533459        0.24578051        0.02327165        0.44480904
     206         -0.043912        0.000000        0.00779473        0.51819052        0.05539638        0.13489119
     207         -0.042699        0.000000        0.00819026        0.06913010        0.37352641        0.24730211
     208         -0.042002        0.000000        0.00253704        0.27048491        0.33351482        0.08993737
     209         -0.040950        0.000000        0.00371629        0.02413596        0.24221614        0.42314315
     210         -0.039076        0.000000        0.00090153        0.30647041        0.04965117        0.35182923
     211         -0.036942        0.000000        0.00339117        0.22840576        0.36662446        0.10710826
     212         -0.034960        0.000000        0.00189982        0.07593777        0.42127273        0.20224968
     213         -0.032563        0.000000        0.00580530        0.14109877        0.05125701        0.50516576
     214         -0.031885        0.000000        0.00314077        0.19326800        0.08012717        0.42617711
     215         -0.031379        0.000000        0.00100029        0.31648289        0.26782139        0.10991404
     216         -0.030644        0.000000        0.00389001        0.50354603        0.01146835        0.16847058
     217         -0.028282        0.000000        0.00215536        0.20631619        0.03157248        0.45710436
     218         -0.026988        0.000000        0.00131058        0.23072200        0.24555552        0.22952265
     219         -0.022580        0.000000        0.00129139        0.48580821        0.16355095        0.04434331
     220         -0.018135        0.000000        0.00236152        0.12052342        0.44884540        0.11835063
     221         -0.017228        0.000000        0.00015379        0.01399262        0.64666222        0.01916794
     222         -0.016683        0.000000        0.00424632        0.13923949        0.42884825        0.12574655
     223         -0.014019        0.000000        0.00120974        0.14228432        0.48089640        0.07375802
     224         -0.012047        0.000000        0.00095511        0.04390302        0.22210575        0.41476532
     225         -0.003510        0.000000        0.00031703        0.02327684        0.04268918        0.61244962
     226          0.079345        0.000000        0.00000752        0.00019918        0.00001362        0.00008039
     227          0.087049        0.000000        0.00000256        0.00048422        0.00017305        0.00115079
     228          0.088808        0.000000        0.00000166        0.00005449        0.00008124        0.00004954
     229          0.095704        0.000000        0.00000210        0.00012296        0.00010608        0.00020813
     230          0.100781        0.000000        0.00000183        0.00001923        0.00006932        0.00002060
     231          0.103741        0.000000        0.00000394        0.00001625        0.00004623        0.00015353
     232          0.105069        0.000000        0.00000448        0.00005046        0.00018993        0.00002532
     233          0.141465        0.000000        0.00000053        0.00001478        0.00000623        0.00000299
     234          0.153662        0.000000        0.00000029        0.00000404        0.00000320        0.00001291
     235          0.158387        0.000000        0.00000049        0.00001046        0.00000732        0.00001500
     236          0.171177        0.000000        0.00000137        0.00000031        0.00000229        0.00003439
     237          0.208224        0.000000        0.00000015        0.00000489        0.00001605        0.00003257
     238          0.217822        0.000000        0.00000457        0.00000189        0.00000183        0.00006250
     239          0.247262        0.000000        0.00000182        0.00025616        0.00027516        0.00002225
     240          0.276283        0.000000        0.00000367        0.00001570        0.00000105        0.00011277
     241          0.284896        0.000000        0.00000195        0.00000279        0.00001243        0.00002451
     242          0.291419        0.000000        0.00000842        0.00004892        0.00008788        0.00000745
     243          0.294611        0.000000        0.00000706        0.00024357        0.00040723        0.00035669
     244          0.297918        0.000000        0.00002230        0.00009931        0.00027998        0.00006632
     245          0.299493        0.000000        0.00003466        0.00006317        0.00021513        0.00022812
     246          0.300978        0.000000        0.00003195        0.00005399        0.00007264        0.00025493
     247          0.301297        0.000000        0.00000325        0.00003028        0.00000780        0.00016645
     248          0.302725        0.000000        0.00000644        0.00005986        0.00010101        0.00003129
     249          0.308435        0.000000        0.00001184        0.00002400        0.00009588        0.00007187
     250          0.321945        0.000000        0.00001841        0.00007017        0.00019186        0.00001705
     251          0.332454        0.000000        0.00000716        0.00003650        0.00007867        0.00003011
     252          0.333109        0.000000        0.00003238        0.00011865        0.00040015        0.00002512
     253          0.349335        0.000000        0.00005570        0.00003892        0.00010168        0.00049457
     254          0.438918        0.000000        0.00000068        0.00000178        0.00000076        0.00001121
     255          0.445516        0.000000        0.00000077        0.00000096        0.00000133        0.00000955
     256          0.448960        0.000000        0.00000178        0.00000820        0.00001667        0.00003727
     257          0.450290        0.000000        0.00000442        0.00003184        0.00003110        0.00001067
     258          0.450642        0.000000        0.00000058        0.00000758        0.00001441        0.00000573
     259          0.453127        0.000000        0.00000139        0.00000413        0.00000779        0.00001072