# Projected DOS for atomic kind N at iteration step i = 0, E(Fermi) =    -0.170319 a.u.
#     MO Eigenvalue [a.u.]      Occupation                 s                py                pz                px
       1         -0.976464        1.000000        0.62587635        0.00003240        0.00010882        0.00013082
       2         -0.972439        1.000000        0.62008990        0.00056842        0.00005520        0.00009353
       3         -0.967374        1.000000        0.62260218        0.00000117        0.00005526        0.00000547
       4         -0.957698        1.000000        0.62019313        0.00004232        0.00058645        0.00040078
       5         -0.950021        1.000000        0.61715295        0.00018015        0.00045276        0.00008760
       6         -0.939634        1.000000        0.61330187        0.00002954        0.00014274        0.00001339
       7         -0.933214        1.000000        0.61368748        0.00002215        0.00000561        0.00016034
       8         -0.709510        1.000000        0.01394484        0.01251440        0.01892139        0.20055891
       9         -0.709195        1.000000        0.01876125        0.01808932        0.02578901        0.16431118
      10         -0.702782        1.000000        0.01654051        0.01001883        0.17545892        0.02473088
      11         -0.697565        1.000000        0.01897402        0.00214915        0.07082594        0.13410296
      12         -0.694916        1.000000        0.02125057        0.00516081        0.01727471        0.17834038
      13         -0.682712        1.000000        0.01746834        0.00268613        0.12699180        0.06106069
      14         -0.678213        1.000000        0.01632033        0.03871533        0.02667972        0.12406346
      15         -0.625945        1.000000        0.00000409        0.00003882        0.00005699        0.00010788
      16         -0.615356        1.000000        0.00033901        0.00641068        0.00234376        0.00367443
      17         -0.614876        1.000000        0.00024649        0.00018249        0.07045794        0.00855126
      18         -0.608504        1.000000        0.00008597        0.24031766        0.29503577        0.07877407
      19         -0.606295        1.000000        0.00025585        0.04779198        0.13065870        0.00802953
      20         -0.598077        1.000000        0.00004117        0.00497780        0.03084425        0.00368086
      21         -0.597084        1.000000        0.00011101        0.26754140        0.10707957        0.21506596
      22         -0.595968        1.000000        0.00013740        0.01026698        0.28542178        0.02878954
      23         -0.588012        1.000000        0.00002033        0.51431321        0.00692200        0.00353984
      24         -0.587360        1.000000        0.00008784        0.10091534        0.01365837        0.07048344
      25         -0.586248        1.000000        0.00030694        0.08740756        0.05244795        0.04734973
      26         -0.585135        1.000000        0.00204193        0.48312381        0.01785699        0.03930707
      27         -0.584373        1.000000        0.00022152        0.17740533        0.07956244        0.06011023
      28         -0.583058        1.000000        0.00006965        0.10107309        0.03072943        0.00989459
      29         -0.580774        1.000000        0.00091451        0.07527140        0.00224862        0.03724743
      30         -0.580571        1.000000        0.00009625        0.01737783        0.00333638        0.00341449
      31         -0.579839        1.000000        0.00015149        0.02302497        0.00805771        0.02132234
      32         -0.578758        1.000000        0.00000702        0.33380449        0.25318228        0.00505253
      33         -0.578166        1.000000        0.00012409        0.10614769        0.02608089        0.10171839
      34         -0.576826        1.000000        0.00029743        0.11867495        0.00599134        0.08984407
      35         -0.575465        1.000000        0.00013427        0.03783815        0.00546039        0.02196178
      36         -0.574350        1.000000        0.00003270        0.01383878        0.01223583        0.00425559
      37         -0.572232        1.000000        0.00018320        0.01512704        0.02071991        0.01555334
      38         -0.570046        1.000000        0.00008222        0.01341496        0.05625254        0.00324536
      39         -0.569185        1.000000        0.00319344        0.00539162        0.25521728        0.23527399
      40         -0.568563        1.000000        0.00043937        0.08759056        0.07698023        0.02948978
      41         -0.567311        1.000000        0.00036148        0.05402631        0.00711976        0.02171102
      42         -0.567248        1.000000        0.00005640        0.00595877        0.00196956        0.00291056
      43         -0.565999        1.000000        0.00002092        0.00486729        0.00103361        0.00025283
      44         -0.564743        1.000000        0.00043837        0.00417275        0.06588190        0.00149070
      45         -0.564175        1.000000        0.00000427        0.00074366        0.00229180        0.00174109
      46         -0.563985        1.000000        0.00008559        0.02419146        0.02457038        0.03761611
      47         -0.562036        1.000000        0.00153766        0.01757661        0.24782044        0.01141097
      48         -0.559279        1.000000        0.00018983        0.02434403        0.08396821        0.14876353
      49         -0.558539        1.000000        0.00016227        0.01256389        0.05678397        0.08390870
      50         -0.556542        1.000000        0.00001003        0.03457518        0.02046974        0.01824827
      51         -0.554317        1.000000        0.00008582        0.34329294        0.00360033        0.00295067
      52         -0.552887        1.000000        0.00005888        0.05014466        0.03639231        0.02672013
      53         -0.552627        1.000000        0.00011373        0.13323206        0.06009448        0.01630217
      54         -0.552093        1.000000        0.00003440        0.01463839        0.00942123        0.00489829
      55         -0.551218        1.000000        0.00001133        0.01480007        0.00138522        0.00511360
      56         -0.550634        1.000000        0.00002632        0.00678949        0.00184428        0.00059136
      57         -0.550511        1.000000        0.00005560        0.01348461        0.00842794        0.00400335
      58         -0.550112        1.000000        0.00020235        0.09810205        0.00528716        0.01487930
      59         -0.549821        1.000000        0.00029408        0.16240544        0.00986332        0.04058985
      60         -0.545748        1.000000        0.00002337        0.03429505        0.02477467        0.02922838
      61         -0.544643        1.000000        0.00001953        0.02450940        0.00833388        0.00021329
      62         -0.544306        1.000000        0.00001295        0.00071531        0.00094353        0.00041839
      63         -0.544008        1.000000        0.00005184        0.00464700        0.00076187        0.00036252
      64         -0.543437        1.000000        0.00003285        0.00030622        0.30595775        0.05021407
      65         -0.498791        1.000000        0.01038659        0.01549281        0.03618906        0.35885085
      66         -0.492217        1.000000        0.00661286        0.00978816        0.04562077        0.38238630
      67         -0.488828        1.000000        0.00805090        0.03691141        0.35012733        0.04461299
      68         -0.482106        1.000000        0.00624424        0.00775150        0.22935017        0.20009776
      69         -0.477668        1.000000        0.00615299        0.01976598        0.00903500        0.40662437
      70         -0.463095        1.000000        0.00783616        0.00739568        0.29491206        0.12991355
      71         -0.458194        1.000000        0.00871829        0.09657007        0.04340765        0.27850046
      72         -0.456196        1.000000        0.00051066        0.00358087        0.00799919        0.01941308
      73         -0.452406        1.000000        0.00000324        0.00042795        0.00055937        0.00053487
      74         -0.448563        1.000000        0.00001246        0.00124114        0.00052482        0.00131943
      75         -0.444785        1.000000        0.00002215        0.00016386        0.00015460        0.00064900
      76         -0.441988        1.000000        0.00002014        0.00023026        0.00023151        0.00086244
      77         -0.439669        1.000000        0.00000731        0.00094267        0.00055787        0.00053594
      78         -0.437794        1.000000        0.00001008        0.00008858        0.00120854        0.00068214
      79         -0.432708        1.000000        0.00000737        0.00017683        0.00020185        0.00066205
      80         -0.424313        1.000000        0.00008201        0.03216217        0.00666870        0.00014465
      81         -0.422124        1.000000        0.00003963        0.00792303        0.02129787        0.00737347
      82         -0.416688        1.000000        0.00001745        0.00250278        0.03225232        0.00084322
      83         -0.415966        1.000000        0.00000443        0.00933179        0.00493778        0.01696066
      84         -0.415769        1.000000        0.00001395        0.02749722        0.00091500        0.00349440
      85         -0.413497        1.000000        0.00000066        0.02882030        0.00008371        0.01030016
      86         -0.411295        1.000000        0.00008792        0.01016348        0.02660664        0.00210239
      87         -0.411255        1.000000        0.00020429        0.00542564        0.01976507        0.01805702
      88         -0.409914        1.000000        0.00001682        0.02752844        0.00619113        0.00195922
      89         -0.407495        1.000000        0.00012740        0.03145253        0.01867325        0.00001561
      90         -0.401096        1.000000        0.00000979        0.02701709        0.00676168        0.00467906
      91         -0.399313        1.000000        0.00000037        0.01042964        0.00712853        0.01926463
      92         -0.395112        1.000000        0.00000013        0.00706461        0.02086159        0.01368806
      93         -0.393980        1.000000        0.00000015        0.02330817        0.01422982        0.00063631
      94         -0.305390        1.000000        0.00000216        0.00000541        0.00000338        0.00001438
      95         -0.292033        1.000000        0.00010776        0.00047008        0.00004769        0.00031143
      96         -0.289869        1.000000        0.00001878        0.00002374        0.00004435        0.00000495
      97         -0.277409        1.000000        0.00009212        0.00027759        0.00007951        0.00012333
      98         -0.270673        1.000000        0.00029105        0.00046800        0.00002887        0.00080499
      99         -0.264828        1.000000        0.00014165        0.00068397        0.00018679        0.00007250
     100         -0.261393        1.000000        0.00029352        0.00050073        0.00068978        0.00032266
     101         -0.258607        1.000000        0.00009336        0.00050891        0.00002763        0.00014081
     102         -0.257577        1.000000        0.00048717        0.00065279        0.00010624        0.00074973
     103         -0.256673        1.000000        0.00003701        0.00023352        0.00005192        0.00005246
     104         -0.255171        1.000000        0.00078381        0.00053292        0.00027649        0.00057059
     105         -0.252621        1.000000        0.00085252        0.00013103        0.00226171        0.00010061
     106         -0.252129        1.000000        0.00043003        0.00026175        0.00044726        0.00024336
     107         -0.250372        1.000000        0.00019172        0.00052899        0.00024519        0.00018733
     108         -0.248660        1.000000        0.00016428        0.00026899        0.00037958        0.00004978
     109         -0.245294        1.000000        0.00002995        0.00001899        0.00033084        0.00008056
     110         -0.244009        1.000000        0.00014203        0.00068681        0.00006882        0.00017792
     111         -0.243009        1.000000        0.00015916        0.00003092        0.00012657        0.00007776
     112         -0.240242        1.000000        0.00026865        0.00055638        0.00042926        0.00016017
     113         -0.239422        1.000000        0.00003156        0.00001157        0.00007973        0.00029253
     114         -0.238912        1.000000        0.00066908        0.00062765        0.00026636        0.00147191
     115         -0.236781        1.000000        0.00112899        0.00029288        0.00118145        0.00032279
     116         -0.235962        1.000000        0.00017760        0.00030653        0.00025840        0.00015465
     117         -0.235287        1.000000        0.00007468        0.00067750        0.00020673        0.00049139
     118         -0.233490        1.000000        0.00059146        0.00035445        0.00014092        0.00039383
     119         -0.232012        1.000000        0.00046342        0.00036157        0.00027086        0.00030604
     120         -0.229889        1.000000        0.00039217        0.00163728        0.00011725        0.00055275
     121         -0.228244        1.000000        0.00076571        0.00037456        0.00062502        0.00037377
     122         -0.226518        1.000000        0.00028211        0.00126224        0.00015597        0.00051142
     123         -0.225501        1.000000        0.00077263        0.00101098        0.00136790        0.00024055
     124         -0.225074        1.000000        0.00021649        0.00011176        0.00022465        0.00008651
     125         -0.221353        1.000000        0.00158309        0.00018641        0.00104989        0.00028201
     126         -0.220810        1.000000        0.00219208        0.00231184        0.00012481        0.00234785
     127         -0.218300        1.000000        0.00044861        0.00060185        0.00017528        0.00044838
     128         -0.217665        1.000000        0.00119510        0.00089595        0.00039231        0.00104975
     129         -0.216391        1.000000        0.00004969        0.00020048        0.00019519        0.00098261
     130         -0.214401        1.000000        0.00125220        0.00105083        0.00194450        0.00063083
     131         -0.213335        1.000000        0.00043853        0.00940187        0.00011369        0.00138308
     132         -0.210915        1.000000        0.00015868        0.00034077        0.00011525        0.00032283
     133         -0.209879        1.000000        0.00017260        0.00026382        0.00024005        0.00073356
     134         -0.208041        1.000000        0.00019486        0.00073293        0.00021149        0.00048412
     135         -0.207105        1.000000        0.00211444        0.00023875        0.00121035        0.00140400
     136         -0.206428        1.000000        0.00021700        0.00055608        0.00018406        0.00018469
     137         -0.205521        1.000000        0.00009113        0.00018567        0.00026899        0.00022192
     138         -0.204472        1.000000        0.00025043        0.00053520        0.00047949        0.00030844
     139         -0.204232        1.000000        0.00018192        0.00201350        0.00021045        0.00028366
     140         -0.203568        1.000000        0.00015796        0.00011801        0.00036394        0.00005605
     141         -0.202194        1.000000        0.00043162        0.00032133        0.00011926        0.00010527
     142         -0.201376        1.000000        0.00018064        0.00009825        0.00003407        0.00019549
     143         -0.199326        1.000000        0.00035593        0.00042651        0.00009631        0.00021443
     144         -0.198563        1.000000        0.00006317        0.00011617        0.00006717        0.00004397
     145         -0.198062        1.000000        0.00007894        0.00039195        0.00010499        0.00015142
     146         -0.197100        1.000000        0.00003275        0.00061427        0.00006235        0.00012272
     147         -0.196478        1.000000        0.00024942        0.00055040        0.00101224        0.00029976
     148         -0.195932        1.000000        0.00038928        0.00073996        0.00018354        0.00025807
     149         -0.195033        1.000000        0.00049519        0.00133066        0.00032126        0.00027643
     150         -0.193886        1.000000        0.00006135        0.00036803        0.00265701        0.00026035
     151         -0.193243        1.000000        0.00072133        0.00114353        0.00011647        0.00006205
     152         -0.193020        1.000000        0.00014015        0.00020098        0.00124538        0.00008646
     153         -0.192607        1.000000        0.00111101        0.00286078        0.00029587        0.00037312
     154         -0.191635        1.000000        0.00068206        0.00218374        0.00142557        0.00053831
     155         -0.191311        1.000000        0.00006597        0.00028989        0.00017692        0.00005074
     156         -0.190270        1.000000        0.00053277        0.00182958        0.00017850        0.00048744
     157         -0.189740        1.000000        0.00065764        0.00253131        0.00005764        0.00049183
     158         -0.188757        1.000000        0.00024501        0.00104910        0.00009107        0.00038987
     159         -0.188269        1.000000        0.00065538        0.00179991        0.00025699        0.00035281
     160         -0.187681        1.000000        0.00023222        0.00048928        0.00014402        0.00015966
     161         -0.186637        1.000000        0.00031960        0.00035895        0.00193916        0.00036434
     162         -0.186318        1.000000        0.00057333        0.00268722        0.00030460        0.00074570
     163         -0.185013        1.000000        0.00008087        0.00042797        0.00027982        0.00021503
     164         -0.184655        1.000000        0.00008122        0.00017361        0.00041152        0.00016194
     165         -0.184383        1.000000        0.00028555        0.00051547        0.00005936        0.00015542
     166         -0.183998        1.000000        0.00048681        0.00043929        0.00021109        0.00012426
     167         -0.182824        1.000000        0.00011046        0.00002999        0.00012855        0.00007991
     168         -0.182294        1.000000        0.00006458        0.00009728        0.00005237        0.00006145
     169         -0.181305        1.000000        0.00020621        0.00020513        0.00028181        0.00009812
     170         -0.180812        1.000000        0.00003422        0.00001017        0.00007587        0.00002037
     171         -0.180121        1.000000        0.00003065        0.00005208        0.00007298        0.00002892
     172         -0.179368        1.000000        0.00033580        0.00001190        0.00025279        0.00015932
     173         -0.178544        1.000000        0.00002845        0.00023588        0.00027481        0.00004016
     174         -0.178299        1.000000        0.00005100        0.00006873        0.00033725        0.00005047
     175         -0.178039        1.000000        0.00008594        0.00008178        0.00055478        0.00006664
     176         -0.177198        1.000000        0.00003719        0.00002208        0.00005384        0.00002213
     177         -0.176653        1.000000        0.00008886        0.00022366        0.00003240        0.00007598
     178         -0.176180        1.000000        0.00013061        0.00020634        0.00006983        0.00003011
     179         -0.175905        1.000000        0.00001386        0.00003720        0.00033386        0.00005457
     180         -0.175585        1.000000        0.00017820        0.00047068        0.00001944        0.00014501
     181         -0.175051        1.000000        0.00004535        0.00017052        0.00008379        0.00003391
     182         -0.173573        1.000000        0.00004158        0.00010655        0.00006198        0.00004156
     183         -0.172965        1.000000        0.00007984        0.00005176        0.00016015        0.00003320
     184         -0.172652        1.000000        0.00004479        0.00007362        0.00000202        0.00004022
     185         -0.172589        1.000000        0.00002301        0.00007703        0.00005412        0.00004702
     186         -0.172486        1.000000        0.00008028        0.00024658        0.00004705        0.00002560
     187         -0.172246        1.000000        0.00004906        0.00005746        0.00015556        0.00006104
     188         -0.171896        1.000000        0.00001416        0.00002398        0.00004373        0.00002552
     189         -0.171205        1.000000        0.00001946        0.00001418        0.00002584        0.00003542
     190         -0.171176        1.000000        0.00000898        0.00001917        0.00002160        0.00001834
     191         -0.170725        1.000000        0.00004763        0.00003146        0.00004144        0.00004746
     192         -0.170713        1.000000        0.00001689        0.00002536        0.00004502        0.00002510
     193         -0.170424        1.000000        0.00002825        0.00009201        0.00001630        0.00004943
     194         -0.170319        1.000000        0.00001447        0.00004031        0.00001446        0.00006695
     195         -0.170233        0.000000        0.00001375        0.00001933        0.00001202        0.00000407
     196         -0.169721        0.000000        0.00001946        0.00006378        0.00000451        0.00005376
     197         -0.169476        0.000000        0.00000912        0.00001355        0.00001200        0.00000500
     198         -0.169364        0.000000        0.00001338        0.00006553        0.00002302        0.00005653
     199         -0.169228        0.000000        0.00001883        0.00003405        0.00001176        0.00001879
     200         -0.168547        0.000000        0.00002391        0.00001555        0.00001113        0.00001946
     201         -0.165763        0.000000        0.00000432        0.00001094        0.00000337        0.00000127
     202         -0.065056        0.000000        0.00039991        0.00047036        0.00006281        0.00012952
     203         -0.060334        0.000000        0.00009502        0.00006552        0.00013435        0.00002476
     204         -0.056039        0.000000        0.00008030        0.00017815        0.00003046        0.00003801
     205         -0.047398        0.000000        0.00008020        0.00009097        0.00020836        0.00011565
     206         -0.043912        0.000000        0.00021999        0.00001312        0.00019677        0.00013402
     207         -0.042699        0.000000        0.00014110        0.00017441        0.00003501        0.00003792
     208         -0.042002        0.000000        0.00021027        0.00009171        0.00006236        0.00001855
     209         -0.040950        0.000000        0.00013121        0.00008389        0.00005356        0.00004335
     210         -0.039076        0.000000        0.00009994        0.00014827        0.00004573        0.00012173
     211         -0.036942        0.000000        0.00002653        0.00011815        0.00007552        0.00001274
     212         -0.034960        0.000000        0.00012337        0.00006410        0.00017683        0.00008402
     213         -0.032563        0.000000        0.00013581        0.00003377        0.00023612        0.00009924
     214         -0.031885        0.000000        0.00016603        0.00013174        0.00017519        0.00002736
     215         -0.031379        0.000000        0.00023241        0.00017012        0.00000727        0.00010544
     216         -0.030644        0.000000        0.00007941        0.00003508        0.00005811        0.00011970
     217         -0.028282        0.000000        0.00010011        0.00002117        0.00008329        0.00002992
     218         -0.026988        0.000000        0.00003235        0.00001921        0.00013183        0.00003747
     219         -0.022580        0.000000        0.00006534        0.00009236        0.00004665        0.00001650
     220         -0.018135        0.000000        0.00011845        0.00003514        0.00001579        0.00001091
     221         -0.017228        0.000000        0.00019338        0.00014132        0.00006996        0.00015253
     222         -0.016683        0.000000        0.00006787        0.00008953        0.00001452        0.00006612
     223         -0.014019        0.000000        0.00028623        0.00046642        0.00005195        0.00013506
     224         -0.012047        0.000000        0.00003163        0.00001528        0.00029230        0.00004442
     225         -0.003510        0.000000        0.00032612        0.00017148        0.00045439        0.00015080
     226          0.079345        0.000000        0.10945578        0.01812222        0.03187320        0.19755434
     227          0.087049        0.000000        0.10837151        0.01780829        0.20604190        0.02308344
     228          0.088808        0.000000        0.13285548        0.01176192        0.02806625        0.18040326
     229          0.095704        0.000000        0.12628455        0.00456393        0.06553898        0.16170539
     230          0.100781        0.000000        0.12601912        0.00228062        0.02846073        0.20408930
     231          0.103741        0.000000        0.09998695        0.06132028        0.02696858        0.17377099
     232          0.105069        0.000000        0.09662474        0.00428631        0.18156054        0.07903601
     233          0.141465        0.000000        0.04035393        0.00012509        0.27563478        0.01903037
     234          0.153662        0.000000        0.05522350        0.16158142        0.00482713        0.11221402
     235          0.158387        0.000000        0.03600226        0.07535017        0.14282851        0.08148730
     236          0.171177        0.000000        0.00271309        0.20309765        0.12235516        0.00039971
     237          0.208224        0.000000        0.01919336        0.23454177        0.00224412        0.07787504
     238          0.217822        0.000000        0.11153857        0.01421847        0.04750572        0.17141962
     239          0.247262        0.000000        0.10071000        0.03187130        0.00119853        0.20423228
     240          0.276283        0.000000        0.00019631        0.04535383        0.25626058        0.02146531
     241          0.284896        0.000000        0.09967466        0.10281915        0.13217571        0.00197973
     242          0.291419        0.000000        0.00291713        0.30243692        0.00076587        0.01497932
     243          0.294611        0.000000        0.11717706        0.05439709        0.13673142        0.02740641
     244          0.297918        0.000000        0.00208922        0.11363846        0.05552344        0.15042594
     245          0.299493        0.000000        0.00602272        0.16818701        0.08356747        0.05600556
     246          0.300978        0.000000        0.00681707        0.06262345        0.13946976        0.10721889
     247          0.301297        0.000000        0.17440806        0.11044540        0.03555846        0.02006194
     248          0.302725        0.000000        0.00404803        0.21217795        0.08840720        0.01276938
     249          0.308435        0.000000        0.00009897        0.18959619        0.10528447        0.02162166
     250          0.321945        0.000000        0.17269506        0.01139109        0.00339289        0.14899423
     251          0.332454        0.000000        0.18389511        0.02116794        0.06940462        0.05843911
     252          0.333109        0.000000        0.23740762        0.00718875        0.05332056        0.04222108
     253          0.349335        0.000000        0.24360735        0.02977226        0.02160497        0.05068728
     254          0.438918        0.000000        0.00015609        0.00062219        0.02190557        0.00224734
     255          0.445516        0.000000        0.00055833        0.01666525        0.00006925        0.00004522
     256          0.448960        0.000000        0.00015394        0.01113234        0.01075424        0.00183610
     257          0.450290        0.000000        0.00001630        0.00236800        0.00070258        0.01384501
     258          0.450642        0.000000        0.00000443        0.00593989        0.00783114        0.00019280
     259          0.453127        0.000000        0.00073958        0.01511144        0.00409743        0.00387012