# Projected DOS for atomic kind Pb at iteration step i = 0, E(Fermi) =    -0.170858 a.u.
#     MO Eigenvalue [a.u.]      Occupation                 s                py                pz                px
       1         -0.976805        1.000000        0.00000001        0.00000012        0.00000015        0.00000008
       2         -0.972779        1.000000        0.00000001        0.00000009        0.00000003        0.00000014
       3         -0.967718        1.000000        0.00000155        0.00002263        0.00002742        0.00001161
       4         -0.958046        1.000000        0.00000006        0.00000048        0.00000044        0.00000042
       5         -0.950356        1.000000        0.00000039        0.00000511        0.00000862        0.00000193
       6         -0.939975        1.000000        0.00000020        0.00000166        0.00000260        0.00000083
       7         -0.933549        1.000000        0.00000012        0.00000096        0.00000079        0.00000135
       8         -0.709850        1.000000        0.00000324        0.00000528        0.00000884        0.00000535
       9         -0.709530        1.000000        0.00000149        0.00000285        0.00000166        0.00000086
      10         -0.703126        1.000000        0.00004971        0.00009315        0.00007774        0.00012151
      11         -0.697907        1.000000        0.00000737        0.00001251        0.00001310        0.00001450
      12         -0.695247        1.000000        0.00001981        0.00001631        0.00002254        0.00000179
      13         -0.683043        1.000000        0.00003166        0.00003689        0.00002521        0.00002349
      14         -0.678545        1.000000        0.00000560        0.00000816        0.00000241        0.00000823
      15         -0.626274        1.000000        0.00082918        0.00083290        0.00035510        0.00001032
      16         -0.615796        1.000000        0.00634266        0.00568630        0.00142797        0.00010121
      17         -0.615435        1.000000        0.00311625        0.00206495        0.00008805        0.00286366
      18         -0.608868        1.000000        0.00007046        0.00001145        0.00000517        0.00002474
      19         -0.606709        1.000000        0.00903531        0.00201519        0.00025283        0.00449187
      20         -0.598599        1.000000        0.09746205        0.00128591        0.01319604        0.00010412
      21         -0.597453        1.000000        0.00272089        0.00006786        0.00096844        0.00032388
      22         -0.596372        1.000000        0.01134570        0.00094449        0.00070751        0.00276858
      23         -0.588413        1.000000        0.00721720        0.00033565        0.00012698        0.00025027
      24         -0.587786        1.000000        0.03229208        0.00191411        0.01347319        0.00120169
      25         -0.586773        1.000000        0.02777315        0.00739009        0.00737566        0.00093112
      26         -0.585515        1.000000        0.00317239        0.00021545        0.00033877        0.00020800
      27         -0.584819        1.000000        0.02920249        0.00128528        0.00730315        0.00102260
      28         -0.583595        1.000000        0.07733974        0.00016880        0.01120283        0.00150277
      29         -0.581250        1.000000        0.04832692        0.01388565        0.00758017        0.00039009
      30         -0.580930        1.000000        0.01763056        0.00355805        0.00375426        0.00111353
      31         -0.580279        1.000000        0.04571851        0.01680624        0.00285998        0.00137544
      32         -0.579127        1.000000        0.00171629        0.00079180        0.00028872        0.00018361
      33         -0.578589        1.000000        0.02839936        0.01250229        0.00433693        0.00100691
      34         -0.577268        1.000000        0.02833994        0.00452803        0.00340874        0.00139628
      35         -0.575916        1.000000        0.00889995        0.00168310        0.00076853        0.00020455
      36         -0.574968        1.000000        0.00398445        0.00016129        0.00026898        0.00098975
      37         -0.572869        1.000000        0.07042069        0.00254074        0.00472484        0.00442122
      38         -0.570870        1.000000        0.01130815        0.00217152        0.00854522        0.02083179
      39         -0.569624        1.000000        0.00443209        0.00052403        0.00240979        0.00247557
      40         -0.569186        1.000000        0.00830466        0.00149279        0.00716650        0.00545708
      41         -0.567960        1.000000        0.01094885        0.00155524        0.00180697        0.02950257
      42         -0.567820        1.000000        0.00522356        0.01871163        0.01770020        0.00472295
      43         -0.566443        1.000000        0.00012759        0.00025023        0.00048436        0.00301382
      44         -0.565036        1.000000        0.05620982        0.00024816        0.00520146        0.01953073
      45         -0.564754        1.000000        0.03794179        0.00004944        0.00624588        0.02419694
      46         -0.564689        1.000000        0.08291941        0.00140711        0.00433508        0.01254744
      47         -0.562421        1.000000        0.01725577        0.00359223        0.00687189        0.00459345
      48         -0.559836        1.000000        0.03536533        0.00686157        0.00721272        0.00287511
      49         -0.559168        1.000000        0.02850238        0.00992009        0.00665104        0.00470050
      50         -0.557265        1.000000        0.02406326        0.01959400        0.00675989        0.00406325
      51         -0.554820        1.000000        0.02347798        0.00282534        0.00506488        0.00381244
      52         -0.553507        1.000000        0.03320591        0.00239229        0.00434177        0.01626413
      53         -0.553080        1.000000        0.03237992        0.00178230        0.00861599        0.00651864
      54         -0.552889        1.000000        0.00635173        0.01290461        0.00356673        0.00981605
      55         -0.551977        1.000000        0.00057925        0.01214578        0.01409761        0.00022293
      56         -0.551248        1.000000        0.00139199        0.01754621        0.00915749        0.00433833
      57         -0.550866        1.000000        0.00804885        0.01085634        0.01356711        0.00380029
      58         -0.550675        1.000000        0.00636741        0.00730334        0.01316645        0.00482570
      59         -0.550469        1.000000        0.00648736        0.00828899        0.00558473        0.00441432
      60         -0.546547        1.000000        0.00070887        0.00164013        0.02136117        0.00457953
      61         -0.545296        1.000000        0.00544479        0.00314237        0.00645641        0.01472044
      62         -0.545178        1.000000        0.00320069        0.01466827        0.00522503        0.00342536
      63         -0.544912        1.000000        0.00290976        0.00164916        0.00040074        0.01605745
      64         -0.543953        1.000000        0.00440535        0.00310627        0.00341806        0.00589342
      65         -0.499117        1.000000        0.00017907        0.00000860        0.00001293        0.00001430
      66         -0.492545        1.000000        0.00032541        0.00002024        0.00000069        0.00000412
      67         -0.489167        1.000000        0.00021277        0.00006539        0.00011657        0.00018601
      68         -0.482440        1.000000        0.00050964        0.00000836        0.00002607        0.00005985
      69         -0.477993        1.000000        0.00211004        0.00000274        0.00003489        0.00000538
      70         -0.463428        1.000000        0.01868623        0.00007387        0.00014769        0.00002632
      71         -0.458536        1.000000        0.04640076        0.00008731        0.00002999        0.00009011
      72         -0.456715        1.000000        0.61984139        0.00066440        0.00017479        0.00042780
      73         -0.452924        1.000000        0.72735698        0.00053045        0.00096190        0.00137716
      74         -0.448952        1.000000        0.75775021        0.00049172        0.00018752        0.00135386
      75         -0.445150        1.000000        0.75144768        0.00063486        0.00105677        0.00129639
      76         -0.442463        1.000000        0.75040265        0.00053740        0.00023005        0.00090029
      77         -0.440054        1.000000        0.75751799        0.00014374        0.00057112        0.00041635
      78         -0.438067        1.000000        0.76927560        0.00006760        0.00021268        0.00095145
      79         -0.432961        1.000000        0.76209540        0.00020331        0.00028284        0.00094959
      80         -0.424625        1.000000        0.00083582        0.00001037        0.00000621        0.00001808
      81         -0.422438        1.000000        0.00047433        0.00001154        0.00000317        0.00000504
      82         -0.417003        1.000000        0.00193526        0.00002249        0.00002517        0.00008558
      83         -0.416282        1.000000        0.00104608        0.00015138        0.00006911        0.00027211
      84         -0.416083        1.000000        0.00382982        0.00004554        0.00005215        0.00005416
      85         -0.413824        1.000000        0.00899473        0.00009770        0.00036793        0.00021503
      86         -0.411606        1.000000        0.00010163        0.00002501        0.00002626        0.00001021
      87         -0.411570        1.000000        0.00027968        0.00000524        0.00000042        0.00005856
      88         -0.410237        1.000000        0.00069894        0.00002660        0.00005721        0.00011678
      89         -0.407808        1.000000        0.00021714        0.00002218        0.00003482        0.00000243
      90         -0.401402        1.000000        0.00142971        0.00010789        0.00022626        0.00002438
      91         -0.399621        1.000000        0.00085331        0.00014921        0.00013155        0.00013556
      92         -0.395424        1.000000        0.00066299        0.00001924        0.00000854        0.00011198
      93         -0.394286        1.000000        0.00073009        0.00000910        0.00002556        0.00015240
      94         -0.305807        1.000000        0.00057886        0.01203198        0.00075242        0.00011674
      95         -0.292671        1.000000        0.00120486        0.01247707        0.01099612        0.00079722
      96         -0.290742        1.000000        0.00105215        0.00860643        0.00097105        0.01178109
      97         -0.277959        1.000000        0.00102314        0.04436451        0.01575747        0.02303917
      98         -0.271335        1.000000        0.00267045        0.05558112        0.16297294        0.00113214
      99         -0.265657        1.000000        0.00465073        0.05050900        0.06101673        0.09440401
     100         -0.262076        1.000000        0.00632955        0.03877015        0.03929364        0.17227836
     101         -0.259141        1.000000        0.00436299        0.05425483        0.13436866        0.06049602
     102         -0.258218        1.000000        0.00194890        0.01710598        0.18452054        0.03804505
     103         -0.257284        1.000000        0.00240213        0.14540156        0.10128361        0.00726439
     104         -0.255523        1.000000        0.00025767        0.08091437        0.01034793        0.09121749
     105         -0.252997        1.000000        0.00071643        0.02336311        0.01365912        0.14007651
     106         -0.252594        1.000000        0.00042992        0.03314214        0.01483698        0.12520062
     107         -0.250850        1.000000        0.00779016        0.08915763        0.10304662        0.04074287
     108         -0.249115        1.000000        0.00210984        0.04420509        0.02529922        0.14772517
     109         -0.245865        1.000000        0.00236516        0.14278287        0.04021339        0.03770579
     110         -0.244410        1.000000        0.00552193        0.10636126        0.05476392        0.08644494
     111         -0.243458        1.000000        0.00348748        0.09622823        0.05722504        0.04516809
     112         -0.240692        1.000000        0.00062320        0.02429723        0.03324213        0.09511852
     113         -0.239740        1.000000        0.00022817        0.00378285        0.00301531        0.00741411
     114         -0.239440        1.000000        0.00078979        0.08657747        0.06922212        0.01437184
     115         -0.237180        1.000000        0.00186771        0.10859903        0.04655992        0.04609813
     116         -0.236436        1.000000        0.00181902        0.09107125        0.04638194        0.01627258
     117         -0.235676        1.000000        0.00185202        0.03181315        0.07819506        0.02351005
     118         -0.233864        1.000000        0.00159580        0.02860114        0.01863403        0.08916755
     119         -0.232615        1.000000        0.00334081        0.11640915        0.04425109        0.02266781
     120         -0.230261        1.000000        0.00280906        0.02995437        0.10817315        0.07493954
     121         -0.228598        1.000000        0.00151276        0.01624225        0.11691106        0.04978589
     122         -0.226913        1.000000        0.00438173        0.06562334        0.06023249        0.08438313
     123         -0.225839        1.000000        0.00157452        0.00484922        0.04134313        0.02844184
     124         -0.225418        1.000000        0.00347995        0.07640049        0.08107621        0.04434626
     125         -0.221864        1.000000        0.00554871        0.02143501        0.04311864        0.04936945
     126         -0.221272        1.000000        0.00378708        0.01768756        0.01537556        0.03350527
     127         -0.218736        1.000000        0.00221152        0.01002619        0.01764844        0.02265383
     128         -0.218104        1.000000        0.00708666        0.01481039        0.02374632        0.04568245
     129         -0.216747        1.000000        0.00025717        0.00394049        0.00400563        0.00225402
     130         -0.214724        1.000000        0.00396043        0.01280930        0.02122479        0.00142679
     131         -0.213701        1.000000        0.00614592        0.01422487        0.01883973        0.01656122
     132         -0.211304        1.000000        0.00241248        0.01052284        0.00303732        0.01253182
     133         -0.210298        1.000000        0.00696656        0.02334518        0.00865695        0.01794657
     134         -0.208405        1.000000        0.00783762        0.01547321        0.01112649        0.01743229
     135         -0.207479        1.000000        0.00347155        0.00280139        0.02245804        0.00792323
     136         -0.206749        1.000000        0.00106459        0.00369886        0.00494274        0.00455484
     137         -0.205856        1.000000        0.00190812        0.00123832        0.00431929        0.00214840
     138         -0.204829        1.000000        0.00169391        0.00313574        0.00660371        0.00429768
     139         -0.204608        1.000000        0.00436794        0.00919750        0.00278372        0.01221024
     140         -0.203871        1.000000        0.00069975        0.00173618        0.00084860        0.00203568
     141         -0.202630        1.000000        0.00581573        0.00563885        0.00249868        0.00941545
     142         -0.201721        1.000000        0.00115160        0.00393948        0.00184557        0.00348721
     143         -0.199739        1.000000        0.00487817        0.00473980        0.00231641        0.00383618
     144         -0.198817        1.000000        0.00033456        0.00060719        0.00053114        0.00120440
     145         -0.198481        1.000000        0.00186979        0.00487504        0.00161465        0.00224098
     146         -0.197401        1.000000        0.00201120        0.00251483        0.00221850        0.00305659
     147         -0.196945        1.000000        0.01525896        0.02913282        0.01096070        0.00848231
     148         -0.196318        1.000000        0.00587029        0.00690912        0.00202488        0.00499135
     149         -0.195369        1.000000        0.00459377        0.00328084        0.00376518        0.00343234
     150         -0.194362        1.000000        0.01066170        0.00579212        0.00372241        0.01298501
     151         -0.193771        1.000000        0.01449576        0.01147495        0.00308641        0.01576934
     152         -0.193423        1.000000        0.00376015        0.00514053        0.00049412        0.00468792
     153         -0.192988        1.000000        0.01038297        0.00688133        0.00402807        0.00659227
     154         -0.192036        1.000000        0.00387239        0.00249498        0.00170343        0.00250589
     155         -0.191745        1.000000        0.00286454        0.00269170        0.00357759        0.00216650
     156         -0.190630        1.000000        0.01200396        0.00594901        0.00372512        0.00525164
     157         -0.190078        1.000000        0.00484806        0.00314794        0.00192894        0.00233478
     158         -0.189313        1.000000        0.02164038        0.00988020        0.00660578        0.01135549
     159         -0.188746        1.000000        0.00116596        0.00055130        0.00181028        0.00050693
     160         -0.188147        1.000000        0.00539825        0.00455617        0.00073338        0.00421350
     161         -0.187261        1.000000        0.00699332        0.00460592        0.00090262        0.00400929
     162         -0.186588        1.000000        0.00798095        0.00239154        0.00329065        0.00548010
     163         -0.185264        1.000000        0.00365777        0.00149783        0.00105177        0.00134276
     164         -0.185163        1.000000        0.00729435        0.00245359        0.00174506        0.00234735
     165         -0.184687        1.000000        0.00729165        0.00214523        0.00562427        0.00166802
     166         -0.184294        1.000000        0.00371323        0.00102127        0.00239983        0.00170390
     167         -0.182998        1.000000        0.00077479        0.00033389        0.00025409        0.00077888
     168         -0.182538        1.000000        0.00219774        0.00035539        0.00026903        0.00089867
     169         -0.181890        1.000000        0.01094027        0.00260417        0.00110154        0.00185092
     170         -0.181782        1.000000        0.00756066        0.00277950        0.00105810        0.00082081
     171         -0.180538        1.000000        0.00269765        0.00252215        0.00248473        0.00014310
     172         -0.179791        1.000000        0.00431169        0.00477685        0.00071568        0.00230984
     173         -0.178962        1.000000        0.00376669        0.00316246        0.00048423        0.00132937
     174         -0.178751        1.000000        0.00327480        0.00154475        0.00022449        0.00291537
     175         -0.178352        1.000000        0.00166678        0.00040999        0.00012636        0.00118432
     176         -0.177810        1.000000        0.01901457        0.00290250        0.00182001        0.00182503
     177         -0.177193        1.000000        0.02149796        0.00519498        0.00275574        0.00600510
     178         -0.176740        1.000000        0.01212424        0.00385130        0.00102480        0.00185063
     179         -0.176271        1.000000        0.00575263        0.00099110        0.00029964        0.00089297
     180         -0.175913        1.000000        0.00105140        0.00027889        0.00304769        0.00017680
     181         -0.175469        1.000000        0.01310572        0.00258496        0.00036525        0.00187043
     182         -0.173988        1.000000        0.02677827        0.00301203        0.00321492        0.01012280
     183         -0.173604        1.000000        0.03123221        0.00148820        0.00349414        0.00473576
     184         -0.173184        1.000000        0.02162127        0.00137656        0.00147024        0.00683072
     185         -0.173126        1.000000        0.01081929        0.00066404        0.00094981        0.00314747
     186         -0.172902        1.000000        0.00204365        0.00036259        0.00125705        0.00055469
     187         -0.172763        1.000000        0.01225110        0.00074412        0.00105055        0.00180399
     188         -0.172500        1.000000        0.00704286        0.00089706        0.00138660        0.00042528
     189         -0.172455        1.000000        0.00767939        0.00085083        0.00100392        0.00083154
     190         -0.172083        1.000000        0.04632934        0.00326692        0.00235045        0.00233779
     191         -0.171702        1.000000        0.02125016        0.00166869        0.00077748        0.00220534
     192         -0.171659        1.000000        0.06178847        0.00361467        0.00182492        0.00577421
     193         -0.171569        1.000000        0.00372818        0.00022680        0.00029655        0.00137043
     194         -0.171162        1.000000        0.02988779        0.00104368        0.00095739        0.00163446
     195         -0.170858        1.000000        0.01209573        0.00090141        0.00093557        0.00059820
     196         -0.170665        0.000000        0.02043690        0.00113023        0.00050667        0.00078243
     197         -0.170502        0.000000        0.02877129        0.00209525        0.00037909        0.00141472
     198         -0.170357        0.000000        0.04679095        0.00196423        0.00053134        0.00252660
     199         -0.170251        0.000000        0.03014593        0.00139346        0.00103677        0.00289304
     200         -0.169705        0.000000        0.08116549        0.00541628        0.00287090        0.00358734
     201         -0.166208        0.000000        0.00347211        0.00090039        0.00002743        0.00024495
     202         -0.065400        0.000000        0.00476570        0.32558446        0.33630249        0.06061878
     203         -0.060777        0.000000        0.00514065        0.37864179        0.25482835        0.07875946
     204         -0.056342        0.000000        0.00365198        0.62996142        0.01823375        0.08830342
     205         -0.047621        0.000000        0.00525945        0.25082560        0.02370663        0.44140518
     206         -0.044222        0.000000        0.00772391        0.51435824        0.05698939        0.13774681
     207         -0.043035        0.000000        0.00789241        0.07064226        0.35051611        0.26928471
     208         -0.042447        0.000000        0.00272652        0.26289444        0.33041376        0.10294752
     209         -0.041314        0.000000        0.00399448        0.02752397        0.26923542        0.39442790
     210         -0.039467        0.000000        0.00092815        0.31209341        0.04860547        0.34899483
     211         -0.037261        0.000000        0.00338342        0.23059359        0.36554902        0.10688345
     212         -0.035264        0.000000        0.00185122        0.07811045        0.41840808        0.20377202
     213         -0.032861        0.000000        0.00571592        0.14552237        0.05396115        0.49888221
     214         -0.032225        0.000000        0.00321712        0.26077419        0.07540894        0.36198316
     215         -0.031829        0.000000        0.00097612        0.25148028        0.27433299        0.17323341
     216         -0.031045        0.000000        0.00394736        0.50558299        0.01263313        0.16621976
     217         -0.028599        0.000000        0.00223869        0.19805141        0.03055115        0.46715045
     218         -0.027290        0.000000        0.00130552        0.22856428        0.24777335        0.23058198
     219         -0.022878        0.000000        0.00130966        0.48438890        0.16533711        0.04438076
     220         -0.018544        0.000000        0.00244258        0.11264853        0.44613315        0.12976950
     221         -0.017664        0.000000        0.00011963        0.01286653        0.64931466        0.01921757
     222         -0.017045        0.000000        0.00425470        0.14398717        0.43140138        0.11997035
     223         -0.014422        0.000000        0.00122454        0.14688613        0.47749079        0.07394844
     224         -0.012507        0.000000        0.00097886        0.04324836        0.22689293        0.41276752
     225         -0.003979        0.000000        0.00031590        0.02332786        0.04315863        0.61446697
     226          0.079033        0.000000        0.00000752        0.00019851        0.00001359        0.00008048
     227          0.086726        0.000000        0.00000259        0.00048429        0.00017307        0.00115278
     228          0.088490        0.000000        0.00000166        0.00005458        0.00008133        0.00004950
     229          0.095384        0.000000        0.00000209        0.00012300        0.00010604        0.00020820
     230          0.100474        0.000000        0.00000182        0.00001927        0.00006904        0.00002052
     231          0.103429        0.000000        0.00000396        0.00001626        0.00004608        0.00015433
     232          0.104759        0.000000        0.00000446        0.00005042        0.00018963        0.00002526
     233          0.141153        0.000000        0.00000053        0.00001481        0.00000625        0.00000300
     234          0.153357        0.000000        0.00000029        0.00000404        0.00000320        0.00001293
     235          0.158098        0.000000        0.00000049        0.00001044        0.00000732        0.00001500
     236          0.170866        0.000000        0.00000137        0.00000032        0.00000230        0.00003438
     237          0.207904        0.000000        0.00000015        0.00000491        0.00001606        0.00003267
     238          0.217521        0.000000        0.00000457        0.00000188        0.00000183        0.00006251
     239          0.246945        0.000000        0.00000182        0.00025640        0.00027540        0.00002232
     240          0.275971        0.000000        0.00000367        0.00001571        0.00000105        0.00011288
     241          0.284573        0.000000        0.00000196        0.00000280        0.00001244        0.00002455
     242          0.291103        0.000000        0.00000840        0.00004889        0.00008783        0.00000744
     243          0.294289        0.000000        0.00000706        0.00024359        0.00040713        0.00035736
     244          0.297619        0.000000        0.00002225        0.00009957        0.00027968        0.00006642
     245          0.299191        0.000000        0.00003454        0.00006347        0.00021554        0.00022709
     246          0.300676        0.000000        0.00003212        0.00005362        0.00007211        0.00025704
     247          0.300986        0.000000        0.00000323        0.00003047        0.00000792        0.00016678
     248          0.302438        0.000000        0.00000641        0.00005982        0.00010111        0.00003126
     249          0.308149        0.000000        0.00001178        0.00002393        0.00009564        0.00007208
     250          0.321630        0.000000        0.00001840        0.00007029        0.00019193        0.00001701
     251          0.332158        0.000000        0.00000723        0.00003685        0.00007971        0.00003009
     252          0.332808        0.000000        0.00003222        0.00011850        0.00039899        0.00002526
     253          0.349046        0.000000        0.00005567        0.00003894        0.00010150        0.00049538
     254          0.438646        0.000000        0.00000068        0.00000178        0.00000076        0.00001121
     255          0.445245        0.000000        0.00000077        0.00000097        0.00000133        0.00000955
     256          0.448684        0.000000        0.00000178        0.00000820        0.00001663        0.00003730
     257          0.450006        0.000000        0.00000442        0.00003190        0.00003107        0.00001068
     258          0.450366        0.000000        0.00000057        0.00000758        0.00001447        0.00000571
     259          0.452847        0.000000        0.00000139        0.00000414        0.00000779        0.00001071