100
Lattice="31.7900009155 0.0 0.0 0.0 31.0900001526 0.0 0.0 0.0 30.3899993896" Properties=species:S:1:pos:R:3 i=860 E=-1915.4106707216 pbc="F F F"
I       13.39269199      11.79355053       8.40417840
I       19.26196714      12.68049520       8.88428197
I       12.35069240      17.87388520       8.26965372
I       19.75038676      19.58245491       8.68653865
I       11.79842066       8.72597637      11.87171593
I       18.51788779       8.89380859      11.38281828
I        9.04325250      12.03091562      10.36834508
I       12.25564803      13.02461354      13.69037574
I       11.66761168      15.69224366      10.23036323
I       16.20300450      11.07423169      12.15776969
I       18.66621000      12.68994124      15.91475788
I       18.41522367      15.83038690      12.03362810
I       22.21997044      12.90047772      12.32592443
I        9.59289511      18.35684084      13.10518307
I       13.21804312      19.73030401      15.50888998
I       11.84786387      22.10486393      11.46408390
I       15.30836030      18.20663990      11.70226281
I       18.16212882      18.46037088      15.62626106
I       19.98952599      22.50151238      12.23519596
I       21.91080449      18.39967074      12.29579680
I       13.06080802       8.62924657      18.97149260
I       20.61354761       8.92441950      18.59991785
I        9.35825165      12.27584683      17.57841213
I       11.54217972      13.34746702      21.52297034
I       13.04178582      15.03685580      17.28816037
I       15.37959112      10.58472289      18.11363425
I       18.06078035      11.76325721      21.63328758
I       18.90734318      15.91776206      19.61377577
I       22.17531957      13.03507477      19.59085295
I        9.60058945      17.61372870      18.22435292
I       11.77688824      18.98575747      22.00929637
I       11.23602619      22.11479381      18.91116738
I       15.38522221      18.59622653      19.27378302
I       19.39356543      17.83669899      22.03932387
I       17.71085886      22.32389419      19.27956661
I       21.62012082      20.10031895      18.06990373
Pb      11.92943248      11.55390635      11.09340518
Pb      19.09548874      12.81081507      11.91791917
Pb      12.54121390      19.34051597      12.59266685
Pb      19.17391821      19.46443066      11.64568662
Pb      12.22977348      12.40225213      18.67550875
Pb      19.50998964      11.73167952      18.80580535
Pb      12.14893612      19.14623673      18.97450479
Pb      18.52412262      19.29360865      18.55081455
C       15.71758812      15.23906402       8.23525392
C       14.89187142       8.32113441      14.56215527
C        8.44764039      14.80238978      14.74661049
C       15.44880866      15.23275542      14.44810915
C       21.73966251      15.53824234      15.40068529
C       16.34028711      21.62801615      14.18408685
C       15.31338682      15.19596633      21.32607604
N       17.20654736      15.55153499       8.54407344
N       16.32955223       8.62889940      15.08086369
N        9.72024413      15.54054850      15.30535154
N       16.33547170      15.43372661      15.72490440
N       23.18837815      15.21128948      15.83423126
N       16.87762346      22.03002240      15.59133225
N       16.44863336      15.00581057      22.37048357
H       15.69805372      14.72173420       7.30801685
H       15.19050437      16.15734878       8.15937930
H       15.30636591      14.64267928       9.01113928
H       17.70690200      16.03451247       7.62374328
H       17.72135573      14.67223924       8.72425061
H       17.29193821      16.15609519       9.37051110
H       14.95737047       8.04619471      13.53540938
H       14.28983559       9.18534572      14.68173203
H       14.51989039       7.50851556      15.14027416
H       16.70332242       9.46085650      14.60303862
H       17.00420872       7.74219635      14.84923765
H       16.30111134       8.81403509      16.09370051
H        8.78039338      14.03107978      14.09743555
H        7.88250769      15.51870725      14.20562004
H        7.88684507      14.41581428      15.56849292
H       10.02004377      16.26417840      14.61552811
H       10.49420251      14.87050293      15.47425980
H        9.52566325      16.03294579      16.21032854
H       16.08334408      15.27429820      13.59799916
H       14.73964257      16.02302892      14.42078247
H       14.96639993      14.29030325      14.52543117
H       16.83933097      16.35799493      15.68599126
H       17.04626479      14.66507080      15.80179276
H       15.71944902      15.41269550      16.56357830
H       21.78650516      16.16350931      14.54348302
H       21.24518824      16.04270954      16.19222540
H       21.23466052      14.63813555      15.15827364
H       23.73488481      16.12840645      16.09413950
H       23.79374658      14.82229655      15.01213033
H       23.20106341      14.55085791      16.61730845
H       16.94585999      22.09755936      13.45090752
H       15.33560889      21.96128195      14.09954973
H       16.39016036      20.57291006      14.08558940
H       16.73220486      23.09711112      15.72639834
H       17.93171465      21.87429984      15.66767879
H       16.39152114      21.50468707      16.32759837
H       15.72128676      15.16714085      20.34735332
H       14.85046732      16.13540463      21.49970527
H       14.60863130      14.41418388      21.46460970
H       17.14499068      15.75457909      22.28257097
H       16.92708555      14.10345343      22.21512598
H       15.99333934      15.04749923      23.43918782
