# Projected DOS for atomic kind H at iteration step i = 0, E(Fermi) =    -0.170858 a.u.
#     MO Eigenvalue [a.u.]      Occupation                 s
       1         -0.976805        1.000000        0.26783589
       2         -0.972779        1.000000        0.26977379
       3         -0.967718        1.000000        0.27160705
       4         -0.958046        1.000000        0.26703095
       5         -0.950356        1.000000        0.26619051
       6         -0.939975        1.000000        0.28078408
       7         -0.933549        1.000000        0.28317783
       8         -0.709850        1.000000        0.32657155
       9         -0.709530        1.000000        0.33792168
      10         -0.703126        1.000000        0.33667151
      11         -0.697907        1.000000        0.34058517
      12         -0.695247        1.000000        0.34474643
      13         -0.683043        1.000000        0.34696251
      14         -0.678545        1.000000        0.34701783
      15         -0.626274        1.000000        0.00014971
      16         -0.615796        1.000000        0.00857496
      17         -0.615435        1.000000        0.04679178
      18         -0.608868        1.000000        0.33443927
      19         -0.606709        1.000000        0.10384221
      20         -0.598599        1.000000        0.02035832
      21         -0.597453        1.000000        0.31914750
      22         -0.596372        1.000000        0.17192375
      23         -0.588413        1.000000        0.28364757
      24         -0.587786        1.000000        0.11444847
      25         -0.586773        1.000000        0.11056533
      26         -0.585515        1.000000        0.28892635
      27         -0.584819        1.000000        0.17082344
      28         -0.583595        1.000000        0.09352326
      29         -0.581250        1.000000        0.06713713
      30         -0.580930        1.000000        0.01483291
      31         -0.580279        1.000000        0.02240751
      32         -0.579127        1.000000        0.30259350
      33         -0.578589        1.000000        0.12987356
      34         -0.577268        1.000000        0.11673502
      35         -0.575916        1.000000        0.03460500
      36         -0.574968        1.000000        0.01625330
      37         -0.572869        1.000000        0.03143656
      38         -0.570870        1.000000        0.04231433
      39         -0.569624        1.000000        0.24715881
      40         -0.569186        1.000000        0.13466523
      41         -0.567960        1.000000        0.05636239
      42         -0.567820        1.000000        0.00140058
      43         -0.566443        1.000000        0.00293635
      44         -0.565036        1.000000        0.04080382
      45         -0.564754        1.000000        0.00509872
      46         -0.564689        1.000000        0.04406576
      47         -0.562421        1.000000        0.15192204
      48         -0.559836        1.000000        0.12318013
      49         -0.559168        1.000000        0.09442393
      50         -0.557265        1.000000        0.03936634
      51         -0.554820        1.000000        0.17369158
      52         -0.553507        1.000000        0.04286159
      53         -0.553080        1.000000        0.11068061
      54         -0.552889        1.000000        0.02050776
      55         -0.551977        1.000000        0.01064983
      56         -0.551248        1.000000        0.01220889
      57         -0.550866        1.000000        0.03130768
      58         -0.550675        1.000000        0.04681684
      59         -0.550469        1.000000        0.10286207
      60         -0.546547        1.000000        0.04438063
      61         -0.545296        1.000000        0.01379410
      62         -0.545178        1.000000        0.00345585
      63         -0.544912        1.000000        0.00297858
      64         -0.543953        1.000000        0.18535517
      65         -0.499117        1.000000        0.20300526
      66         -0.492545        1.000000        0.18739119
      67         -0.489167        1.000000        0.18794264
      68         -0.482440        1.000000        0.18861409
      69         -0.477993        1.000000        0.18654157
      70         -0.463428        1.000000        0.17132106
      71         -0.458536        1.000000        0.16362897
      72         -0.456715        1.000000        0.01434812
      73         -0.452924        1.000000        0.00077674
      74         -0.448952        1.000000        0.00196473
      75         -0.445150        1.000000        0.00081913
      76         -0.442463        1.000000        0.00088425
      77         -0.440054        1.000000        0.00176710
      78         -0.438067        1.000000        0.00120942
      79         -0.432961        1.000000        0.00665436
      80         -0.424625        1.000000        0.42248876
      81         -0.422438        1.000000        0.41978669
      82         -0.417003        1.000000        0.41939913
      83         -0.416282        1.000000        0.41765585
      84         -0.416083        1.000000        0.41527196
      85         -0.413824        1.000000        0.41510224
      86         -0.411606        1.000000        0.42385694
      87         -0.411570        1.000000        0.42396649
      88         -0.410237        1.000000        0.41894333
      89         -0.407808        1.000000        0.42386324
      90         -0.401402        1.000000        0.42022770
      91         -0.399621        1.000000        0.41972160
      92         -0.395424        1.000000        0.42139639
      93         -0.394286        1.000000        0.42072533
      94         -0.305807        1.000000        0.00006496
      95         -0.292671        1.000000        0.00020754
      96         -0.290742        1.000000        0.00013942
      97         -0.277959        1.000000        0.00025386
      98         -0.271335        1.000000        0.00090532
      99         -0.265657        1.000000        0.00025849
     100         -0.262076        1.000000        0.00037986
     101         -0.259141        1.000000        0.00023291
     102         -0.258218        1.000000        0.00056123
     103         -0.257284        1.000000        0.00014792
     104         -0.255523        1.000000        0.00063475
     105         -0.252997        1.000000        0.00074882
     106         -0.252594        1.000000        0.00090924
     107         -0.250850        1.000000        0.00033746
     108         -0.249115        1.000000        0.00046342
     109         -0.245865        1.000000        0.00033023
     110         -0.244410        1.000000        0.00047947
     111         -0.243458        1.000000        0.00034965
     112         -0.240692        1.000000        0.00044828
     113         -0.239740        1.000000        0.00034534
     114         -0.239440        1.000000        0.00068518
     115         -0.237180        1.000000        0.00126535
     116         -0.236436        1.000000        0.00035198
     117         -0.235676        1.000000        0.00037226
     118         -0.233864        1.000000        0.00065231
     119         -0.232615        1.000000        0.00047003
     120         -0.230261        1.000000        0.00048738
     121         -0.228598        1.000000        0.00077279
     122         -0.226913        1.000000        0.00058991
     123         -0.225839        1.000000        0.00085228
     124         -0.225418        1.000000        0.00056486
     125         -0.221864        1.000000        0.00108241
     126         -0.221272        1.000000        0.00210617
     127         -0.218736        1.000000        0.00057372
     128         -0.218104        1.000000        0.00116408
     129         -0.216747        1.000000        0.00052827
     130         -0.214724        1.000000        0.00111845
     131         -0.213701        1.000000        0.00154522
     132         -0.211304        1.000000        0.00056451
     133         -0.210298        1.000000        0.00080501
     134         -0.208405        1.000000        0.00053972
     135         -0.207479        1.000000        0.00196787
     136         -0.206749        1.000000        0.00048492
     137         -0.205856        1.000000        0.00051170
     138         -0.204829        1.000000        0.00071559
     139         -0.204608        1.000000        0.00074970
     140         -0.203871        1.000000        0.00035885
     141         -0.202630        1.000000        0.00066591
     142         -0.201721        1.000000        0.00027213
     143         -0.199739        1.000000        0.00054006
     144         -0.198817        1.000000        0.00010794
     145         -0.198481        1.000000        0.00028516
     146         -0.197401        1.000000        0.00029416
     147         -0.196945        1.000000        0.00057000
     148         -0.196318        1.000000        0.00049088
     149         -0.195369        1.000000        0.00080500
     150         -0.194362        1.000000        0.00070805
     151         -0.193771        1.000000        0.00082327
     152         -0.193423        1.000000        0.00037446
     153         -0.192988        1.000000        0.00130830
     154         -0.192036        1.000000        0.00116573
     155         -0.191745        1.000000        0.00022032
     156         -0.190630        1.000000        0.00099966
     157         -0.190078        1.000000        0.00086779
     158         -0.189313        1.000000        0.00064735
     159         -0.188746        1.000000        0.00108447
     160         -0.188147        1.000000        0.00042408
     161         -0.187261        1.000000        0.00055304
     162         -0.186588        1.000000        0.00117974
     163         -0.185264        1.000000        0.00018435
     164         -0.185163        1.000000        0.00044439
     165         -0.184687        1.000000        0.00026466
     166         -0.184294        1.000000        0.00030917
     167         -0.182998        1.000000        0.00014340
     168         -0.182538        1.000000        0.00012148
     169         -0.181890        1.000000        0.00010878
     170         -0.181782        1.000000        0.00016497
     171         -0.180538        1.000000        0.00013072
     172         -0.179791        1.000000        0.00059739
     173         -0.178962        1.000000        0.00014772
     174         -0.178751        1.000000        0.00030634
     175         -0.178352        1.000000        0.00020718
     176         -0.177810        1.000000        0.00022656
     177         -0.177193        1.000000        0.00036470
     178         -0.176740        1.000000        0.00021345
     179         -0.176271        1.000000        0.00013076
     180         -0.175913        1.000000        0.00030524
     181         -0.175469        1.000000        0.00033213
     182         -0.173988        1.000000        0.00024152
     183         -0.173604        1.000000        0.00016919
     184         -0.173184        1.000000        0.00011613
     185         -0.173126        1.000000        0.00009642
     186         -0.172902        1.000000        0.00017140
     187         -0.172763        1.000000        0.00006073
     188         -0.172500        1.000000        0.00015919
     189         -0.172455        1.000000        0.00018085
     190         -0.172083        1.000000        0.00010989
     191         -0.171702        1.000000        0.00007572
     192         -0.171659        1.000000        0.00010675
     193         -0.171569        1.000000        0.00010885
     194         -0.171162        1.000000        0.00004705
     195         -0.170858        1.000000        0.00003368
     196         -0.170665        0.000000        0.00005252
     197         -0.170502        0.000000        0.00005699
     198         -0.170357        0.000000        0.00006187
     199         -0.170251        0.000000        0.00006091
     200         -0.169705        0.000000        0.00008183
     201         -0.166208        0.000000        0.00000827
     202         -0.065400        0.000000        0.00064815
     203         -0.060777        0.000000        0.00018800
     204         -0.056342        0.000000        0.00021239
     205         -0.047621        0.000000        0.00029988
     206         -0.044222        0.000000        0.00045131
     207         -0.043035        0.000000        0.00022646
     208         -0.042447        0.000000        0.00031724
     209         -0.041314        0.000000        0.00021257
     210         -0.039467        0.000000        0.00031678
     211         -0.037261        0.000000        0.00019543
     212         -0.035264        0.000000        0.00032676
     213         -0.032861        0.000000        0.00029604
     214         -0.032225        0.000000        0.00032916
     215         -0.031829        0.000000        0.00041117
     216         -0.031045        0.000000        0.00010274
     217         -0.028599        0.000000        0.00024003
     218         -0.027290        0.000000        0.00020576
     219         -0.022878        0.000000        0.00018365
     220         -0.018544        0.000000        0.00017787
     221         -0.017664        0.000000        0.00029627
     222         -0.017045        0.000000        0.00023920
     223         -0.014422        0.000000        0.00071060
     224         -0.012507        0.000000        0.00029598
     225         -0.003979        0.000000        0.00091309
     226          0.079033        0.000000        0.00775933
     227          0.086726        0.000000        0.00438626
     228          0.088490        0.000000        0.01263419
     229          0.095384        0.000000        0.02426784
     230          0.100474        0.000000        0.02635353
     231          0.103429        0.000000        0.00334051
     232          0.104759        0.000000        0.00298108
     233          0.141153        0.000000        0.64361051
     234          0.153357        0.000000        0.65959167
     235          0.158098        0.000000        0.64256230
     236          0.170866        0.000000        0.67023476
     237          0.207904        0.000000        0.66416912
     238          0.217521        0.000000        0.64263007
     239          0.246945        0.000000        0.65504209
     240          0.275971        0.000000        0.66499898
     241          0.284573        0.000000        0.65491026
     242          0.291103        0.000000        0.66433573
     243          0.294289        0.000000        0.65506350
     244          0.297619        0.000000        0.66011227
     245          0.299191        0.000000        0.66359488
     246          0.300676        0.000000        0.66229681
     247          0.300986        0.000000        0.64548018
     248          0.302438        0.000000        0.66454868
     249          0.308149        0.000000        0.66240872
     250          0.321630        0.000000        0.64349536
     251          0.332158        0.000000        0.64169838
     252          0.332808        0.000000        0.63416733
     253          0.349046        0.000000        0.63088091
     254          0.438646        0.000000        0.58409802
     255          0.445245        0.000000        0.58843139
     256          0.448684        0.000000        0.58941800
     257          0.450006        0.000000        0.58767163
     258          0.450366        0.000000        0.58923700
     259          0.452847        0.000000        0.58619951
     260          0.454510        0.000000        0.58733901
     261          0.456029        0.000000        0.58269121
     262          0.456397        0.000000        0.58557787
     263          0.456813        0.000000        0.58457817
     264          0.468101        0.000000        0.58240697
     265          0.471468        0.000000        0.58067789
     266          0.474115        0.000000        0.58135573
     267          0.477844        0.000000        0.58220158
     268          0.542796        0.000000        0.55337997
     269          0.560072        0.000000        0.55166764
     270          0.562183        0.000000        0.55243256
     271          0.562853        0.000000        0.55220409
     272          0.564395        0.000000        0.55163123
     273          0.568856        0.000000        0.55379043
     274          0.571819        0.000000        0.55205190
