# Projected DOS for atomic kind C at iteration step i = 0, E(Fermi) =    -0.170858 a.u.
#     MO Eigenvalue [a.u.]      Occupation                 s                py                pz                px
       1         -0.976805        1.000000        0.05957663        0.00201924        0.00376601        0.04071106
       2         -0.972779        1.000000        0.06258321        0.00186732        0.00535927        0.03937004
       3         -0.967718        1.000000        0.05990722        0.00323848        0.03702271        0.00531971
       4         -0.958046        1.000000        0.06425943        0.00067975        0.02085473        0.02565989
       5         -0.950356        1.000000        0.06758938        0.00187006        0.00190784        0.04407249
       6         -0.939975        1.000000        0.06064635        0.00066621        0.02965299        0.01382357
       7         -0.933549        1.000000        0.05920082        0.00968319        0.00507017        0.02820231
       8         -0.709850        1.000000        0.42675433        0.00003639        0.00000120        0.00012413
       9         -0.709530        1.000000        0.43357255        0.00041839        0.00005716        0.00055688
      10         -0.703126        1.000000        0.43418890        0.00000910        0.00077106        0.00009775
      11         -0.697907        1.000000        0.43100657        0.00000369        0.00025503        0.00102062
      12         -0.695247        1.000000        0.42954130        0.00000422        0.00053490        0.00134517
      13         -0.683043        1.000000        0.43937217        0.00003684        0.00097912        0.00059555
      14         -0.678545        1.000000        0.44409132        0.00010091        0.00056303        0.00099466
      15         -0.626274        1.000000        0.00013006        0.00004320        0.00001601        0.00012192
      16         -0.615796        1.000000        0.00004874        0.00067908        0.00087079        0.00032335
      17         -0.615435        1.000000        0.00004973        0.00001798        0.00627790        0.00135658
      18         -0.608868        1.000000        0.00001025        0.01924231        0.02324664        0.00675363
      19         -0.606709        1.000000        0.00003620        0.00553547        0.01425675        0.00027547
      20         -0.598599        1.000000        0.00021795        0.00075425        0.00212264        0.00088229
      21         -0.597453        1.000000        0.00014944        0.02549065        0.00739425        0.01960161
      22         -0.596372        1.000000        0.00001001        0.00072558        0.02376209        0.00314555
      23         -0.588413        1.000000        0.00002442        0.04706063        0.00078842        0.00027238
      24         -0.587786        1.000000        0.00005146        0.01108855        0.00222023        0.00629840
      25         -0.586773        1.000000        0.00021811        0.00773334        0.00714668        0.00537505
      26         -0.585515        1.000000        0.00146748        0.05093212        0.00107567        0.01060864
      27         -0.584819        1.000000        0.00058345        0.01672507        0.00751239        0.00657771
      28         -0.583595        1.000000        0.00015250        0.01072620        0.00379255        0.00149597
      29         -0.581250        1.000000        0.00080848        0.01020375        0.00058509        0.00288769
      30         -0.580930        1.000000        0.00011414        0.00144128        0.00036845        0.00061545
      31         -0.580279        1.000000        0.00017010        0.00209402        0.00053918        0.00227208
      32         -0.579127        1.000000        0.00013703        0.03657983        0.02971459        0.00052047
      33         -0.578589        1.000000        0.00029159        0.01137247        0.00347550        0.01010628
      34         -0.577268        1.000000        0.00029279        0.01293023        0.00105433        0.00899465
      35         -0.575916        1.000000        0.00009145        0.00372782        0.00074153        0.00244137
      36         -0.574968        1.000000        0.00002949        0.00157061        0.00136166        0.00077104
      37         -0.572869        1.000000        0.00014573        0.00140056        0.00134360        0.00206518
      38         -0.570870        1.000000        0.00016268        0.00140074        0.00496168        0.00047887
      39         -0.569624        1.000000        0.00145133        0.00172053        0.04170703        0.01370339
      40         -0.569186        1.000000        0.00052226        0.00772661        0.01324742        0.00451787
      41         -0.567960        1.000000        0.00025924        0.00454587        0.00054441        0.00357790
      42         -0.567820        1.000000        0.00001658        0.00013142        0.00017860        0.00022278
      43         -0.566443        1.000000        0.00005416        0.00032572        0.00010149        0.00010007
      44         -0.565036        1.000000        0.00019411        0.00114674        0.00788875        0.00155135
      45         -0.564754        1.000000        0.00008280        0.00004788        0.00088660        0.00009864
      46         -0.564689        1.000000        0.00004602        0.00244723        0.00356036        0.00288301
      47         -0.562421        1.000000        0.00101087        0.00277196        0.02989719        0.00503188
      48         -0.559836        1.000000        0.00005213        0.00277573        0.00683912        0.01271318
      49         -0.559168        1.000000        0.00007655        0.00087783        0.00604006        0.01109317
      50         -0.557265        1.000000        0.00002513        0.00344897        0.00213172        0.00169649
      51         -0.554820        1.000000        0.00001928        0.03716604        0.00036557        0.00038670
      52         -0.553507        1.000000        0.00008340        0.00260450        0.00372417        0.00306535
      53         -0.553080        1.000000        0.00008198        0.02183598        0.00944793        0.00046530
      54         -0.552889        1.000000        0.00001189        0.00319981        0.00164784        0.00087569
      55         -0.551977        1.000000        0.00000572        0.00154925        0.00016157        0.00048001
      56         -0.551248        1.000000        0.00002577        0.00185454        0.00092135        0.00091857
      57         -0.550866        1.000000        0.00016420        0.00634485        0.00061097        0.00041150
      58         -0.550675        1.000000        0.00016451        0.00857821        0.00035191        0.00099869
      59         -0.550469        1.000000        0.00018749        0.01789679        0.00095646        0.00235582
      60         -0.546547        1.000000        0.00006998        0.00333568        0.00313639        0.00331460
      61         -0.545296        1.000000        0.00002024        0.00312839        0.00118475        0.00013449
      62         -0.545178        1.000000        0.00001524        0.00063549        0.00051923        0.00004989
      63         -0.544912        1.000000        0.00007001        0.00061726        0.00015492        0.00007797
      64         -0.543953        1.000000        0.00015421        0.00000249        0.03357160        0.00786771
      65         -0.499117        1.000000        0.03745849        0.01525496        0.02007936        0.30116062
      66         -0.492545        1.000000        0.02907900        0.01971508        0.03990395        0.27765104
      67         -0.489167        1.000000        0.02927652        0.01619498        0.27589470        0.04458979
      68         -0.482440        1.000000        0.02681298        0.00437036        0.13922638        0.19328516
      69         -0.477993        1.000000        0.02507431        0.01031653        0.01825898        0.31138776
      70         -0.463428        1.000000        0.02206703        0.00637983        0.21273612        0.11452339
      71         -0.458536        1.000000        0.02114876        0.06265476        0.05122688        0.20693877
      72         -0.456715        1.000000        0.00206410        0.00486909        0.00861116        0.01451008
      73         -0.452924        1.000000        0.00006268        0.00028163        0.00050437        0.00035857
      74         -0.448952        1.000000        0.00011920        0.00139448        0.00096272        0.00113347
      75         -0.445150        1.000000        0.00002225        0.00043560        0.00045045        0.00040694
      76         -0.442463        1.000000        0.00003788        0.00090887        0.00049751        0.00019893
      77         -0.440054        1.000000        0.00005942        0.00112712        0.00024476        0.00156805
      78         -0.438067        1.000000        0.00012997        0.00012892        0.00111322        0.00062469
      79         -0.432961        1.000000        0.00008212        0.00231543        0.00188833        0.00431095
      80         -0.424625        1.000000        0.00003831        0.41820227        0.11703751        0.00057406
      81         -0.422438        1.000000        0.00000024        0.09083730        0.36722976        0.08370416
      82         -0.417003        1.000000        0.00003032        0.01270176        0.49581380        0.03101211
      83         -0.416282        1.000000        0.00000655        0.16996850        0.08409024        0.28946856
      84         -0.416083        1.000000        0.00000478        0.44660589        0.02254780        0.07360533
      85         -0.413824        1.000000        0.00003712        0.39244670        0.00183943        0.13530416
      86         -0.411606        1.000000        0.00000110        0.16787093        0.32451154        0.04172393
      87         -0.411570        1.000000        0.00001181        0.08772513        0.21459794        0.22424790
      88         -0.410237        1.000000        0.00000282        0.44758610        0.07355341        0.01949498
      89         -0.407808        1.000000        0.00003452        0.34166274        0.17824819        0.00089408
      90         -0.401402        1.000000        0.00000880        0.37051027        0.08390665        0.06914939
      91         -0.399621        1.000000        0.00000053        0.14838183        0.10014187        0.28266663
      92         -0.395424        1.000000        0.00000799        0.08977711        0.27044307        0.17204595
      93         -0.394286        1.000000        0.00013574        0.33728689        0.18355243        0.01531137
      94         -0.305807        1.000000        0.00001387        0.00005253        0.00001516        0.00001090
      95         -0.292671        1.000000        0.00001171        0.00001701        0.00008952        0.00013629
      96         -0.290742        1.000000        0.00001776        0.00005033        0.00005529        0.00000676
      97         -0.277959        1.000000        0.00001603        0.00020894        0.00001945        0.00000774
      98         -0.271335        1.000000        0.00029485        0.00072824        0.00015454        0.00063855
      99         -0.265657        1.000000        0.00007350        0.00010044        0.00023127        0.00007922
     100         -0.262076        1.000000        0.00006470        0.00010042        0.00012269        0.00019370
     101         -0.259141        1.000000        0.00012556        0.00021580        0.00004198        0.00014494
     102         -0.258218        1.000000        0.00010603        0.00011750        0.00037500        0.00007347
     103         -0.257284        1.000000        0.00003353        0.00010884        0.00003970        0.00006271
     104         -0.255523        1.000000        0.00003860        0.00021675        0.00048902        0.00003230
     105         -0.252997        1.000000        0.00006963        0.00009135        0.00012923        0.00027714
     106         -0.252594        1.000000        0.00016679        0.00007205        0.00036832        0.00010297
     107         -0.250850        1.000000        0.00009189        0.00036841        0.00007829        0.00010958
     108         -0.249115        1.000000        0.00024199        0.00011967        0.00024320        0.00005331
     109         -0.245865        1.000000        0.00020562        0.00029959        0.00003011        0.00023705
     110         -0.244410        1.000000        0.00013785        0.00008060        0.00049984        0.00048282
     111         -0.243458        1.000000        0.00007716        0.00012891        0.00009759        0.00010431
     112         -0.240692        1.000000        0.00015281        0.00013133        0.00005729        0.00013181
     113         -0.239740        1.000000        0.00058815        0.00081588        0.00008390        0.00018091
     114         -0.239440        1.000000        0.00013599        0.00005907        0.00044606        0.00016215
     115         -0.237180        1.000000        0.00011241        0.00003763        0.00022823        0.00054447
     116         -0.236436        1.000000        0.00020031        0.00015222        0.00012224        0.00013680
     117         -0.235676        1.000000        0.00024660        0.00009501        0.00029208        0.00016430
     118         -0.233864        1.000000        0.00023504        0.00038910        0.00019432        0.00016157
     119         -0.232615        1.000000        0.00015060        0.00024369        0.00035735        0.00008147
     120         -0.230261        1.000000        0.00002710        0.00013036        0.00016442        0.00006194
     121         -0.228598        1.000000        0.00018083        0.00016588        0.00040942        0.00020272
     122         -0.226913        1.000000        0.00020782        0.00010636        0.00011463        0.00029761
     123         -0.225839        1.000000        0.00017388        0.00016424        0.00025506        0.00016553
     124         -0.225418        1.000000        0.00036460        0.00031772        0.00057707        0.00038551
     125         -0.221864        1.000000        0.00021065        0.00068333        0.00034124        0.00044321
     126         -0.221272        1.000000        0.00071362        0.00077027        0.00215920        0.00009978
     127         -0.218736        1.000000        0.00028289        0.00107708        0.00028924        0.00012992
     128         -0.218104        1.000000        0.00049799        0.00029857        0.00017208        0.00086422
     129         -0.216747        1.000000        0.00052370        0.00062232        0.00013740        0.00050187
     130         -0.214724        1.000000        0.00019737        0.00095535        0.00024921        0.00052169
     131         -0.213701        1.000000        0.00004644        0.00040204        0.00033866        0.00023705
     132         -0.211304        1.000000        0.00034179        0.00086930        0.00015431        0.00027436
     133         -0.210298        1.000000        0.00031463        0.00065198        0.00023691        0.00028097
     134         -0.208405        1.000000        0.00055228        0.00021358        0.00022045        0.00030666
     135         -0.207479        1.000000        0.00016196        0.00041154        0.00044072        0.00171492
     136         -0.206749        1.000000        0.00013165        0.00023325        0.00017149        0.00026924
     137         -0.205856        1.000000        0.00007618        0.00068167        0.00007103        0.00026278
     138         -0.204829        1.000000        0.00018587        0.00033935        0.00025618        0.00040656
     139         -0.204608        1.000000        0.00020858        0.00042354        0.00029403        0.00040985
     140         -0.203871        1.000000        0.00003884        0.00023486        0.00014037        0.00014362
     141         -0.202630        1.000000        0.00004224        0.00021261        0.00022189        0.00070524
     142         -0.201721        1.000000        0.00002275        0.00011885        0.00012711        0.00024724
     143         -0.199739        1.000000        0.00029455        0.00042316        0.00006125        0.00006635
     144         -0.198817        1.000000        0.00001078        0.00004466        0.00002963        0.00002279
     145         -0.198481        1.000000        0.00015946        0.00022417        0.00042152        0.00011678
     146         -0.197401        1.000000        0.00020945        0.00016816        0.00005668        0.00004333
     147         -0.196945        1.000000        0.00010463        0.00031144        0.00027338        0.00013182
     148         -0.196318        1.000000        0.00010274        0.00005588        0.00009116        0.00017012
     149         -0.195369        1.000000        0.00010792        0.00027586        0.00013122        0.00011783
     150         -0.194362        1.000000        0.00023413        0.00016007        0.00005262        0.00007514
     151         -0.193771        1.000000        0.00009398        0.00015986        0.00007172        0.00038955
     152         -0.193423        1.000000        0.00001745        0.00005014        0.00005427        0.00008259
     153         -0.192988        1.000000        0.00009106        0.00010565        0.00016124        0.00018570
     154         -0.192036        1.000000        0.00006928        0.00011883        0.00005995        0.00021309
     155         -0.191745        1.000000        0.00008759        0.00023081        0.00003575        0.00003725
     156         -0.190630        1.000000        0.00006699        0.00010988        0.00011198        0.00019949
     157         -0.190078        1.000000        0.00006699        0.00017178        0.00006781        0.00011746
     158         -0.189313        1.000000        0.00002672        0.00018026        0.00009251        0.00006916
     159         -0.188746        1.000000        0.00000462        0.00005180        0.00000950        0.00016827
     160         -0.188147        1.000000        0.00019774        0.00021513        0.00013173        0.00006687
     161         -0.187261        1.000000        0.00018418        0.00007679        0.00011155        0.00003809
     162         -0.186588        1.000000        0.00008950        0.00007944        0.00017692        0.00027263
     163         -0.185264        1.000000        0.00003406        0.00001425        0.00005180        0.00002376
     164         -0.185163        1.000000        0.00005340        0.00003517        0.00005472        0.00017513
     165         -0.184687        1.000000        0.00004056        0.00002896        0.00076891        0.00002224
     166         -0.184294        1.000000        0.00015802        0.00018396        0.00018880        0.00041773
     167         -0.182998        1.000000        0.00004491        0.00001139        0.00013116        0.00005129
     168         -0.182538        1.000000        0.00002025        0.00001689        0.00007944        0.00003383
     169         -0.181890        1.000000        0.00005639        0.00011433        0.00020326        0.00003720
     170         -0.181782        1.000000        0.00003206        0.00006297        0.00029894        0.00011610
     171         -0.180538        1.000000        0.00008154        0.00007730        0.00014937        0.00004318
     172         -0.179791        1.000000        0.00020611        0.00025474        0.00011324        0.00018071
     173         -0.178962        1.000000        0.00008495        0.00015816        0.00007933        0.00007577
     174         -0.178751        1.000000        0.00001296        0.00006236        0.00004777        0.00003131
     175         -0.178352        1.000000        0.00001617        0.00004316        0.00001547        0.00001651
     176         -0.177810        1.000000        0.00005114        0.00006851        0.00013277        0.00010929
     177         -0.177193        1.000000        0.00017830        0.00012675        0.00014474        0.00015649
     178         -0.176740        1.000000        0.00004961        0.00009570        0.00003510        0.00007903
     179         -0.176271        1.000000        0.00003875        0.00004725        0.00002021        0.00005183
     180         -0.175913        1.000000        0.00000473        0.00000980        0.00001896        0.00002850
     181         -0.175469        1.000000        0.00020605        0.00021347        0.00044173        0.00008681
     182         -0.173988        1.000000        0.00020236        0.00009509        0.00029339        0.00022105
     183         -0.173604        1.000000        0.00001935        0.00004227        0.00009373        0.00002085
     184         -0.173184        1.000000        0.00002720        0.00016754        0.00004616        0.00005169
     185         -0.173126        1.000000        0.00000839        0.00008176        0.00003255        0.00004273
     186         -0.172902        1.000000        0.00005178        0.00002859        0.00003023        0.00009964
     187         -0.172763        1.000000        0.00003004        0.00005978        0.00004377        0.00004739
     188         -0.172500        1.000000        0.00013656        0.00020736        0.00013462        0.00013964
     189         -0.172455        1.000000        0.00019179        0.00050411        0.00010866        0.00026078
     190         -0.172083        1.000000        0.00003637        0.00011768        0.00016312        0.00003560
     191         -0.171702        1.000000        0.00003750        0.00008111        0.00005148        0.00000357
     192         -0.171659        1.000000        0.00000631        0.00001016        0.00000945        0.00001850
     193         -0.171569        1.000000        0.00025961        0.00033225        0.00073288        0.00016752
     194         -0.171162        1.000000        0.00004163        0.00005911        0.00003266        0.00001538
     195         -0.170858        1.000000        0.00003234        0.00005849        0.00004154        0.00003015
     196         -0.170665        0.000000        0.00001117        0.00004127        0.00003796        0.00001426
     197         -0.170502        0.000000        0.00001411        0.00004312        0.00009596        0.00005474
     198         -0.170357        0.000000        0.00000456        0.00003886        0.00001625        0.00000702
     199         -0.170251        0.000000        0.00003046        0.00003296        0.00007207        0.00004208
     200         -0.169705        0.000000        0.00001105        0.00002598        0.00002531        0.00004565
     201         -0.166208        0.000000        0.00000174        0.00000684        0.00000436        0.00000058
     202         -0.065400        0.000000        0.00002028        0.00001736        0.00010029        0.00002477
     203         -0.060777        0.000000        0.00004511        0.00002193        0.00002541        0.00005371
     204         -0.056342        0.000000        0.00003920        0.00001338        0.00005977        0.00005670
     205         -0.047621        0.000000        0.00002492        0.00001925        0.00003026        0.00001740
     206         -0.044222        0.000000        0.00004428        0.00002377        0.00003084        0.00007253
     207         -0.043035        0.000000        0.00001784        0.00003987        0.00002260        0.00006124
     208         -0.042447        0.000000        0.00000631        0.00003602        0.00006375        0.00001065
     209         -0.041314        0.000000        0.00003116        0.00002745        0.00000562        0.00007438
     210         -0.039467        0.000000        0.00002883        0.00001720        0.00003008        0.00001800
     211         -0.037261        0.000000        0.00018306        0.00007834        0.00003026        0.00002663
     212         -0.035264        0.000000        0.00015155        0.00003065        0.00008224        0.00002427
     213         -0.032861        0.000000        0.00032835        0.00002733        0.00014647        0.00007517
     214         -0.032225        0.000000        0.00010541        0.00002616        0.00014849        0.00004706
     215         -0.031829        0.000000        0.00000879        0.00002089        0.00003728        0.00004840
     216         -0.031045        0.000000        0.00017802        0.00002097        0.00007541        0.00013673
     217         -0.028599        0.000000        0.00005663        0.00000458        0.00007399        0.00009077
     218         -0.027290        0.000000        0.00006884        0.00001724        0.00003598        0.00001777
     219         -0.022878        0.000000        0.00006301        0.00002512        0.00001181        0.00005178
     220         -0.018544        0.000000        0.00000691        0.00000816        0.00002766        0.00006577
     221         -0.017664        0.000000        0.00019531        0.00010406        0.00011483        0.00007340
     222         -0.017045        0.000000        0.00004295        0.00000643        0.00001744        0.00003864
     223         -0.014422        0.000000        0.00000427        0.00000637        0.00003885        0.00003822
     224         -0.012507        0.000000        0.00003200        0.00004700        0.00004679        0.00002273
     225         -0.003979        0.000000        0.00000432        0.00003266        0.00003602        0.00005469
     226          0.079033        0.000000        0.08111203        0.02590171        0.05773245        0.46820142
     227          0.086726        0.000000        0.08537169        0.03474298        0.45030652        0.06590208
     228          0.088490        0.000000        0.08561786        0.02696485        0.04816489        0.47242005
     229          0.095384        0.000000        0.08183655        0.00732247        0.22950173        0.29687136
     230          0.100474        0.000000        0.07858342        0.02161953        0.02919674        0.48104617
     231          0.103429        0.000000        0.08149089        0.11678759        0.07568748        0.35820980
     232          0.104759        0.000000        0.08075799        0.00870048        0.36458144        0.17863985
     233          0.141153        0.000000        0.00530100        0.00017400        0.00817186        0.00697866
     234          0.153357        0.000000        0.00243128        0.00000095        0.00007604        0.00338562
     235          0.158098        0.000000        0.00543216        0.00076255        0.00008510        0.01503125
     236          0.170866        0.000000        0.00001512        0.00044379        0.00034774        0.00010041
     237          0.207904        0.000000        0.00021316        0.00053110        0.00001540        0.00092065
     238          0.217521        0.000000        0.00470542        0.00000023        0.00002517        0.00702567
     239          0.246945        0.000000        0.00235960        0.00064313        0.00004464        0.00254115
     240          0.275971        0.000000        0.00000175        0.00149251        0.00544946        0.00026766
     241          0.284573        0.000000        0.00213628        0.00240518        0.00212583        0.00024756
     242          0.291103        0.000000        0.00007943        0.00710135        0.00002549        0.00019797
     243          0.294289        0.000000        0.00210642        0.00261808        0.00107036        0.00095272
     244          0.297619        0.000000        0.00001850        0.00233324        0.00124430        0.00317793
     245          0.299191        0.000000        0.00005888        0.00332014        0.00383214        0.00116620
     246          0.300676        0.000000        0.00008771        0.00116039        0.00470941        0.00228203
     247          0.300986        0.000000        0.00318897        0.00226740        0.00063872        0.00055636
     248          0.302438        0.000000        0.00008540        0.00759215        0.00145328        0.00055477
     249          0.308149        0.000000        0.00004140        0.00863854        0.00166810        0.00220238
     250          0.321630        0.000000        0.00350304        0.00029968        0.00273829        0.00168277
     251          0.332158        0.000000        0.00406388        0.00188345        0.00274593        0.00005498
     252          0.332808        0.000000        0.00409276        0.00030893        0.00043105        0.00005124
     253          0.349046        0.000000        0.00578530        0.00001706        0.00039214        0.00004539
     254          0.438646        0.000000        0.00010813        0.01086861        0.34581160        0.03366965
     255          0.445245        0.000000        0.00063134        0.36566225        0.00325768        0.02432419
     256          0.448684        0.000000        0.00007530        0.19412070        0.13869088        0.05274233
     257          0.450006        0.000000        0.00010656        0.06998033        0.01784875        0.30716216
     258          0.450366        0.000000        0.00039953        0.17693149        0.21516641        0.00384044
     259          0.452847        0.000000        0.00004899        0.20645989        0.12702332        0.05565439