# Projected DOS for atomic kind C at iteration step i = 0, E(Fermi) =    -0.170319 a.u.
#     MO Eigenvalue [a.u.]      Occupation                 s                py                pz                px
       1         -0.976464        1.000000        0.05954775        0.00201830        0.00376345        0.04069289
       2         -0.972439        1.000000        0.06255215        0.00186620        0.00535661        0.03935180
       3         -0.967374        1.000000        0.05987562        0.00323715        0.03700420        0.00531755
       4         -0.957698        1.000000        0.06422637        0.00067943        0.02084523        0.02564675
       5         -0.950021        1.000000        0.06755377        0.00186927        0.00190675        0.04405130
       6         -0.939634        1.000000        0.06061724        0.00066580        0.02963819        0.01381733
       7         -0.933214        1.000000        0.05916821        0.00967796        0.00506749        0.02818829
       8         -0.709510        1.000000        0.42680937        0.00003653        0.00000130        0.00012607
       9         -0.709195        1.000000        0.43362662        0.00041898        0.00005758        0.00056060
      10         -0.702782        1.000000        0.43423779        0.00000899        0.00077507        0.00009791
      11         -0.697565        1.000000        0.43105845        0.00000374        0.00025704        0.00102446
      12         -0.694916        1.000000        0.42959550        0.00000432        0.00053563        0.00134998
      13         -0.682712        1.000000        0.43942245        0.00003700        0.00098412        0.00059770
      14         -0.678213        1.000000        0.44414142        0.00010185        0.00056416        0.00099866
      15         -0.625945        1.000000        0.00013012        0.00004318        0.00001599        0.00012187
      16         -0.615356        1.000000        0.00004875        0.00068520        0.00086079        0.00032205
      17         -0.614876        1.000000        0.00004962        0.00001650        0.00649780        0.00138680
      18         -0.608504        1.000000        0.00001026        0.01922398        0.02323499        0.00674810
      19         -0.606295        1.000000        0.00003672        0.00555995        0.01414289        0.00026551
      20         -0.598077        1.000000        0.00021754        0.00076803        0.00229911        0.00090976
      21         -0.597084        1.000000        0.00015015        0.02546290        0.00739362        0.01960094
      22         -0.595968        1.000000        0.00001045        0.00072240        0.02347049        0.00310361
      23         -0.588012        1.000000        0.00002342        0.04790967        0.00078756        0.00024258
      24         -0.587360        1.000000        0.00005262        0.01073702        0.00235610        0.00661065
      25         -0.586248        1.000000        0.00022382        0.00798802        0.00725959        0.00547222
      26         -0.585135        1.000000        0.00146380        0.05100904        0.00112561        0.01063339
      27         -0.584373        1.000000        0.00054449        0.01792304        0.00815399        0.00649165
      28         -0.583058        1.000000        0.00018230        0.00933486        0.00297478        0.00138226
      29         -0.580774        1.000000        0.00078960        0.00958919        0.00062049        0.00299837
      30         -0.580571        1.000000        0.00011837        0.00143409        0.00032904        0.00033371
      31         -0.579839        1.000000        0.00020222        0.00280087        0.00071935        0.00291622
      32         -0.578758        1.000000        0.00013776        0.03666061        0.02980192        0.00038685
      33         -0.578166        1.000000        0.00028024        0.01117227        0.00313695        0.00997990
      34         -0.576826        1.000000        0.00029311        0.01258131        0.00104399        0.00876397
      35         -0.575465        1.000000        0.00009379        0.00369305        0.00075213        0.00244053
      36         -0.574350        1.000000        0.00002679        0.00148832        0.00133683        0.00073044
      37         -0.572232        1.000000        0.00015613        0.00118053        0.00165672        0.00205741
      38         -0.570046        1.000000        0.00016842        0.00175714        0.00530593        0.00045073
      39         -0.569185        1.000000        0.00169775        0.00102346        0.04639373        0.01573871
      40         -0.568563        1.000000        0.00027872        0.00878575        0.00876090        0.00275377
      41         -0.567311        1.000000        0.00022195        0.00403954        0.00041247        0.00317111
      42         -0.567248        1.000000        0.00004280        0.00052972        0.00023821        0.00054161
      43         -0.565999        1.000000        0.00005426        0.00032283        0.00011160        0.00010400
      44         -0.564743        1.000000        0.00024099        0.00085478        0.00781812        0.00128376
      45         -0.564175        1.000000        0.00000700        0.00033059        0.00034984        0.00032247
      46         -0.563985        1.000000        0.00004844        0.00262438        0.00356653        0.00310185
      47         -0.562036        1.000000        0.00102685        0.00284627        0.03026569        0.00488101
      48         -0.559279        1.000000        0.00004464        0.00255943        0.00780430        0.01499760
      49         -0.558539        1.000000        0.00007785        0.00107276        0.00526472        0.00930242
      50         -0.556542        1.000000        0.00002702        0.00370574        0.00212285        0.00150481
      51         -0.554317        1.000000        0.00001609        0.03836076        0.00041016        0.00033429
      52         -0.552887        1.000000        0.00008759        0.00710703        0.00513502        0.00211973
      53         -0.552627        1.000000        0.00007818        0.01868149        0.00835175        0.00117573
      54         -0.552093        1.000000        0.00000682        0.00182839        0.00105252        0.00075606
      55         -0.551218        1.000000        0.00000874        0.00162792        0.00016169        0.00048928
      56         -0.550634        1.000000        0.00002935        0.00101562        0.00032866        0.00010931
      57         -0.550511        1.000000        0.00002221        0.00172518        0.00083036        0.00082749
      58         -0.550112        1.000000        0.00030919        0.01143903        0.00073495        0.00108965
      59         -0.549821        1.000000        0.00019489        0.01892648        0.00068513        0.00271676
      60         -0.545748        1.000000        0.00005255        0.00270745        0.00416858        0.00349366
      61         -0.544643        1.000000        0.00001890        0.00338505        0.00127525        0.00015380
      62         -0.544306        1.000000        0.00001820        0.00012044        0.00033555        0.00003293
      63         -0.544008        1.000000        0.00006668        0.00055245        0.00015832        0.00007703
      64         -0.543437        1.000000        0.00015989        0.00001002        0.03221311        0.00731627
      65         -0.498791        1.000000        0.03742757        0.01524856        0.02007956        0.30108885
      66         -0.492217        1.000000        0.02905325        0.01971229        0.03989526        0.27758008
      67         -0.488828        1.000000        0.02925453        0.01619247        0.27581140        0.04456523
      68         -0.482106        1.000000        0.02678647        0.00436616        0.13918046        0.19323496
      69         -0.477668        1.000000        0.02505368        0.01031724        0.01825870        0.31130708
      70         -0.463095        1.000000        0.02207664        0.00637740        0.21300877        0.11460203
      71         -0.458194        1.000000        0.02136370        0.06343914        0.05169651        0.20921286
      72         -0.456196        1.000000        0.00179467        0.00408216        0.00782840        0.01208236
      73         -0.452406        1.000000        0.00005957        0.00029083        0.00049743        0.00035238
      74         -0.448563        1.000000        0.00011825        0.00138107        0.00095701        0.00111301
      75         -0.444785        1.000000        0.00002256        0.00043962        0.00042809        0.00043181
      76         -0.441988        1.000000        0.00003671        0.00091128        0.00050913        0.00017315
      77         -0.439669        1.000000        0.00005790        0.00112562        0.00024658        0.00155338
      78         -0.437794        1.000000        0.00013171        0.00013258        0.00111329        0.00064642
      79         -0.432708        1.000000        0.00008222        0.00228721        0.00186040        0.00425941
      80         -0.424313        1.000000        0.00003833        0.41833798        0.11690244        0.00057874
      81         -0.422124        1.000000        0.00000024        0.09071073        0.36736927        0.08370167
      82         -0.416688        1.000000        0.00002999        0.01313255        0.49557652        0.03079397
      83         -0.415966        1.000000        0.00000666        0.17078306        0.08385068        0.28891159
      84         -0.415769        1.000000        0.00000488        0.44524428        0.02305553        0.07451845
      85         -0.413497        1.000000        0.00003696        0.39258257        0.00182378        0.13523974
      86         -0.411295        1.000000        0.00000112        0.16775587        0.32468643        0.04167763
      87         -0.411255        1.000000        0.00001167        0.08866275        0.21396343        0.22395633
      88         -0.409914        1.000000        0.00000290        0.44661101        0.07416474        0.01982469
      89         -0.407495        1.000000        0.00003451        0.34181200        0.17811343        0.00089812
      90         -0.401096        1.000000        0.00000877        0.36959751        0.08425395        0.06969585
      91         -0.399313        1.000000        0.00000051        0.14928543        0.09977949        0.28213658
      92         -0.395112        1.000000        0.00000799        0.08972250        0.27052387        0.17202088
      93         -0.393980        1.000000        0.00013558        0.33734414        0.18348370        0.01533197
      94         -0.305390        1.000000        0.00001387        0.00005239        0.00001517        0.00001084
      95         -0.292033        1.000000        0.00001179        0.00001691        0.00009123        0.00013770
      96         -0.289869        1.000000        0.00001810        0.00005122        0.00005501        0.00000687
      97         -0.277409        1.000000        0.00001673        0.00021144        0.00001932        0.00000778
      98         -0.270673        1.000000        0.00029623        0.00072456        0.00015271        0.00063357
      99         -0.264828        1.000000        0.00007095        0.00010238        0.00022796        0.00006878
     100         -0.261393        1.000000        0.00006674        0.00009956        0.00011790        0.00019858
     101         -0.258607        1.000000        0.00012876        0.00022424        0.00003898        0.00015242
     102         -0.257577        1.000000        0.00011108        0.00011774        0.00038860        0.00007514
     103         -0.256673        1.000000        0.00003380        0.00011306        0.00004298        0.00006242
     104         -0.255171        1.000000        0.00003881        0.00021510        0.00049864        0.00002967
     105         -0.252621        1.000000        0.00005134        0.00005245        0.00009199        0.00031237
     106         -0.252129        1.000000        0.00018860        0.00011422        0.00041060        0.00007271
     107         -0.250372        1.000000        0.00009374        0.00037063        0.00007987        0.00011450
     108         -0.248660        1.000000        0.00023699        0.00011814        0.00023261        0.00005034
     109         -0.245294        1.000000        0.00020069        0.00030126        0.00003481        0.00024073
     110         -0.244009        1.000000        0.00014557        0.00008043        0.00049467        0.00047378
     111         -0.243009        1.000000        0.00007389        0.00012920        0.00009277        0.00010973
     112         -0.240242        1.000000        0.00016233        0.00013451        0.00006124        0.00013172
     113         -0.239422        1.000000        0.00058207        0.00081067        0.00008292        0.00017781
     114         -0.238912        1.000000        0.00014358        0.00005725        0.00047195        0.00016518
     115         -0.236781        1.000000        0.00009154        0.00004131        0.00023593        0.00056779
     116         -0.235962        1.000000        0.00024724        0.00015344        0.00015231        0.00012947
     117         -0.235287        1.000000        0.00024073        0.00009730        0.00026476        0.00016698
     118         -0.233490        1.000000        0.00022530        0.00040883        0.00017166        0.00016823
     119         -0.232012        1.000000        0.00014797        0.00025201        0.00035466        0.00007719
     120         -0.229889        1.000000        0.00002565        0.00012959        0.00015468        0.00006476
     121         -0.228244        1.000000        0.00017984        0.00016420        0.00040657        0.00019794
     122         -0.226518        1.000000        0.00024587        0.00012606        0.00013795        0.00033540
     123         -0.225501        1.000000        0.00016527        0.00016145        0.00027843        0.00017556
     124         -0.225074        1.000000        0.00032057        0.00030311        0.00055387        0.00031684
     125         -0.221353        1.000000        0.00032946        0.00084921        0.00032718        0.00043962
     126         -0.220810        1.000000        0.00057075        0.00062734        0.00214377        0.00011068
     127         -0.218300        1.000000        0.00028254        0.00103757        0.00023891        0.00012827
     128         -0.217665        1.000000        0.00052961        0.00029024        0.00017776        0.00083830
     129         -0.216391        1.000000        0.00050528        0.00062815        0.00014254        0.00052447
     130         -0.214401        1.000000        0.00019807        0.00095050        0.00025038        0.00051947
     131         -0.213335        1.000000        0.00004938        0.00040444        0.00035431        0.00024178
     132         -0.210915        1.000000        0.00034519        0.00088181        0.00015573        0.00027255
     133         -0.209879        1.000000        0.00031026        0.00064714        0.00025982        0.00029806
     134         -0.208041        1.000000        0.00055404        0.00020950        0.00023282        0.00030050
     135         -0.207105        1.000000        0.00014719        0.00040243        0.00043002        0.00173062
     136         -0.206428        1.000000        0.00013981        0.00022387        0.00017206        0.00025710
     137         -0.205521        1.000000        0.00007729        0.00072174        0.00006411        0.00021108
     138         -0.204472        1.000000        0.00010287        0.00027217        0.00013785        0.00018072
     139         -0.204232        1.000000        0.00029315        0.00044995        0.00042129        0.00065932
     140         -0.203568        1.000000        0.00004303        0.00023833        0.00013961        0.00015024
     141         -0.202194        1.000000        0.00004530        0.00020873        0.00019657        0.00065792
     142         -0.201376        1.000000        0.00001963        0.00013552        0.00012933        0.00027664
     143         -0.199326        1.000000        0.00028373        0.00038712        0.00006247        0.00006278
     144         -0.198563        1.000000        0.00001169        0.00004484        0.00003383        0.00002135
     145         -0.198062        1.000000        0.00016122        0.00023412        0.00041561        0.00011930
     146         -0.197100        1.000000        0.00020695        0.00016943        0.00005908        0.00004036
     147         -0.196478        1.000000        0.00009457        0.00030849        0.00028483        0.00016857
     148         -0.195932        1.000000        0.00012144        0.00005540        0.00007862        0.00015424
     149         -0.195033        1.000000        0.00010574        0.00027146        0.00013368        0.00011325
     150         -0.193886        1.000000        0.00023590        0.00013286        0.00005141        0.00005848
     151         -0.193243        1.000000        0.00007143        0.00011066        0.00010138        0.00034654
     152         -0.193020        1.000000        0.00003882        0.00012260        0.00004001        0.00011769
     153         -0.192607        1.000000        0.00008939        0.00011729        0.00013958        0.00020249
     154         -0.191635        1.000000        0.00006908        0.00011942        0.00006531        0.00022119
     155         -0.191311        1.000000        0.00009315        0.00020531        0.00003591        0.00003704
     156         -0.190270        1.000000        0.00006626        0.00011177        0.00011176        0.00018684
     157         -0.189740        1.000000        0.00006840        0.00017378        0.00006528        0.00013105
     158         -0.188757        1.000000        0.00002848        0.00020896        0.00008880        0.00004829
     159         -0.188269        1.000000        0.00000463        0.00003537        0.00001218        0.00017045
     160         -0.187681        1.000000        0.00024227        0.00021941        0.00011525        0.00004984
     161         -0.186637        1.000000        0.00014040        0.00007398        0.00012113        0.00006769
     162         -0.186318        1.000000        0.00008066        0.00008513        0.00016437        0.00024796
     163         -0.185013        1.000000        0.00006765        0.00006409        0.00008014        0.00012689
     164         -0.184655        1.000000        0.00003878        0.00002656        0.00014194        0.00004278
     165         -0.184383        1.000000        0.00004684        0.00002891        0.00058651        0.00018451
     166         -0.183998        1.000000        0.00014130        0.00013012        0.00033042        0.00034841
     167         -0.182824        1.000000        0.00004057        0.00001416        0.00015029        0.00006032
     168         -0.182294        1.000000        0.00001461        0.00001206        0.00005937        0.00003286
     169         -0.181305        1.000000        0.00006627        0.00012405        0.00032558        0.00005129
     170         -0.180812        1.000000        0.00003318        0.00006146        0.00012234        0.00005028
     171         -0.180121        1.000000        0.00006334        0.00006949        0.00013642        0.00005349
     172         -0.179368        1.000000        0.00022378        0.00028391        0.00012925        0.00018213
     173         -0.178544        1.000000        0.00007330        0.00012109        0.00006780        0.00005979
     174         -0.178299        1.000000        0.00000857        0.00005094        0.00002131        0.00005235
     175         -0.178039        1.000000        0.00002240        0.00007034        0.00003676        0.00001960
     176         -0.177198        1.000000        0.00004572        0.00005032        0.00014257        0.00010494
     177         -0.176653        1.000000        0.00018791        0.00013918        0.00014230        0.00015529
     178         -0.176180        1.000000        0.00008695        0.00010386        0.00003573        0.00010972
     179         -0.175905        1.000000        0.00001151        0.00005185        0.00003685        0.00003358
     180         -0.175585        1.000000        0.00000609        0.00001221        0.00002226        0.00002750
     181         -0.175051        1.000000        0.00024360        0.00026062        0.00048059        0.00011227
     182         -0.173573        1.000000        0.00016820        0.00009812        0.00024100        0.00020411
     183         -0.172965        1.000000        0.00002619        0.00001600        0.00006775        0.00003876
     184         -0.172652        1.000000        0.00001641        0.00001205        0.00002385        0.00005298
     185         -0.172589        1.000000        0.00003961        0.00006892        0.00003248        0.00002404
     186         -0.172486        1.000000        0.00003882        0.00021885        0.00007085        0.00006251
     187         -0.172246        1.000000        0.00005206        0.00008349        0.00004246        0.00006442
     188         -0.171896        1.000000        0.00012371        0.00031164        0.00044186        0.00004427
     189         -0.171205        1.000000        0.00013862        0.00040267        0.00022340        0.00019601
     190         -0.171176        1.000000        0.00022959        0.00028814        0.00052261        0.00024213
     191         -0.170725        1.000000        0.00002342        0.00003159        0.00001987        0.00001109
     192         -0.170713        1.000000        0.00009931        0.00015017        0.00003900        0.00012146
     193         -0.170424        1.000000        0.00002184        0.00003637        0.00004140        0.00004868
     194         -0.170319        1.000000        0.00003551        0.00001748        0.00003608        0.00002682
     195         -0.170233        0.000000        0.00002622        0.00004362        0.00004539        0.00002354
     196         -0.169721        0.000000        0.00001418        0.00002766        0.00002748        0.00001651
     197         -0.169476        0.000000        0.00000661        0.00004897        0.00005356        0.00001666
     198         -0.169364        0.000000        0.00000695        0.00004627        0.00001973        0.00001141
     199         -0.169228        0.000000        0.00002253        0.00004007        0.00003106        0.00001116
     200         -0.168547        0.000000        0.00001349        0.00003049        0.00003765        0.00005832
     201         -0.165763        0.000000        0.00000182        0.00000765        0.00000447        0.00000059
     202         -0.065056        0.000000        0.00001985        0.00001745        0.00009933        0.00002458
     203         -0.060334        0.000000        0.00004528        0.00002193        0.00002491        0.00005367
     204         -0.056039        0.000000        0.00003935        0.00001343        0.00006076        0.00005736
     205         -0.047398        0.000000        0.00002509        0.00001945        0.00003022        0.00001740
     206         -0.043912        0.000000        0.00004462        0.00002362        0.00003104        0.00007191
     207         -0.042699        0.000000        0.00001833        0.00003934        0.00002274        0.00006099
     208         -0.042002        0.000000        0.00000638        0.00003695        0.00006452        0.00000996
     209         -0.040950        0.000000        0.00003054        0.00002689        0.00000522        0.00007573
     210         -0.039076        0.000000        0.00002939        0.00001741        0.00002996        0.00001807
     211         -0.036942        0.000000        0.00018663        0.00007891        0.00003185        0.00002742
     212         -0.034960        0.000000        0.00015537        0.00003163        0.00008333        0.00002538
     213         -0.032563        0.000000        0.00033132        0.00002677        0.00014944        0.00007390
     214         -0.031885        0.000000        0.00009952        0.00003145        0.00016268        0.00005148
     215         -0.031379        0.000000        0.00001003        0.00001517        0.00002410        0.00004461
     216         -0.030644        0.000000        0.00017520        0.00001975        0.00007099        0.00013367
     217         -0.028282        0.000000        0.00005416        0.00000479        0.00007205        0.00009330
     218         -0.026988        0.000000        0.00006853        0.00001751        0.00003594        0.00001829
     219         -0.022580        0.000000        0.00006222        0.00002523        0.00001186        0.00005110
     220         -0.018135        0.000000        0.00000686        0.00000758        0.00002589        0.00006339
     221         -0.017228        0.000000        0.00019432        0.00010332        0.00011470        0.00007493
     222         -0.016683        0.000000        0.00004414        0.00000781        0.00001935        0.00003909
     223         -0.014019        0.000000        0.00000437        0.00000640        0.00003891        0.00003887
     224         -0.012047        0.000000        0.00003235        0.00004700        0.00004717        0.00002340
     225         -0.003510        0.000000        0.00000424        0.00003246        0.00003610        0.00005418
     226          0.079345        0.000000        0.08112635        0.02590660        0.05774208        0.46828298
     227          0.087049        0.000000        0.08538611        0.03474857        0.45038438        0.06592314
     228          0.088808        0.000000        0.08563517        0.02697004        0.04818222        0.47249291
     229          0.095704        0.000000        0.08185367        0.00732414        0.22954507        0.29693335
     230          0.100781        0.000000        0.07859676        0.02162240        0.02920222        0.48112700
     231          0.103741        0.000000        0.08150219        0.11680654        0.07570321        0.35827599
     232          0.105069        0.000000        0.08076992        0.00870225        0.36464349        0.17866983
     233          0.141465        0.000000        0.00529811        0.00017394        0.00816751        0.00697185
     234          0.153662        0.000000        0.00242923        0.00000099        0.00007575        0.00338051
     235          0.158387        0.000000        0.00543195        0.00076254        0.00008506        0.01503107
     236          0.171177        0.000000        0.00001499        0.00044434        0.00034764        0.00010085
     237          0.208224        0.000000        0.00021299        0.00053123        0.00001549        0.00092080
     238          0.217822        0.000000        0.00470257        0.00000024        0.00002526        0.00701936
     239          0.247262        0.000000        0.00235840        0.00064282        0.00004423        0.00254067
     240          0.276283        0.000000        0.00000174        0.00149299        0.00545070        0.00026754
     241          0.284896        0.000000        0.00213561        0.00240562        0.00212542        0.00024853
     242          0.291419        0.000000        0.00007886        0.00710540        0.00002555        0.00019781
     243          0.294611        0.000000        0.00210483        0.00261998        0.00106913        0.00095377
     244          0.297918        0.000000        0.00001850        0.00233541        0.00124524        0.00317688
     245          0.299493        0.000000        0.00005851        0.00330557        0.00386155        0.00116801
     246          0.300978        0.000000        0.00008557        0.00117415        0.00468555        0.00228108
     247          0.301297        0.000000        0.00319064        0.00226645        0.00063674        0.00055660
     248          0.302725        0.000000        0.00008589        0.00758669        0.00145520        0.00055479
     249          0.308435        0.000000        0.00004125        0.00863922        0.00166321        0.00220464
     250          0.321945        0.000000        0.00350189        0.00029821        0.00274005        0.00168186
     251          0.332454        0.000000        0.00406060        0.00189361        0.00275111        0.00005507
     252          0.333109        0.000000        0.00409227        0.00030464        0.00042226        0.00005100
     253          0.349335        0.000000        0.00578339        0.00001685        0.00039298        0.00004565
     254          0.438918        0.000000        0.00010842        0.01089051        0.34582891        0.03366473
     255          0.445516        0.000000        0.00063167        0.36567267        0.00326920        0.02433352
     256          0.448960        0.000000        0.00007503        0.19504004        0.13786384        0.05268813
     257          0.450290        0.000000        0.00010569        0.06970196        0.01793149        0.30739168
     258          0.450642        0.000000        0.00039928        0.17602673        0.21600997        0.00393270
     259          0.453127        0.000000        0.00004933        0.20684842        0.12681866        0.05550199