# Projected DOS for atomic kind I at iteration step i = 0, E(Fermi) =    -0.170319 a.u.
#     MO Eigenvalue [a.u.]      Occupation                 s                py                pz                px
       1         -0.976464        1.000000        0.00000112        0.00000993        0.00001733        0.00000206
       2         -0.972439        1.000000        0.00003712        0.00009463        0.00017998        0.00001471
       3         -0.967374        1.000000        0.00002086        0.00010558        0.00010205        0.00003835
       4         -0.957698        1.000000        0.00004405        0.00015850        0.00007003        0.00010819
       5         -0.950021        1.000000        0.00008209        0.00020635        0.00014729        0.00012616
       6         -0.939634        1.000000        0.00017023        0.00038588        0.00007475        0.00038375
       7         -0.933214        1.000000        0.00012559        0.00033115        0.00032480        0.00008380
       8         -0.709510        1.000000        0.00016848        0.00012550        0.00010070        0.00006971
       9         -0.709195        1.000000        0.00016304        0.00005561        0.00006881        0.00014541
      10         -0.702782        1.000000        0.00046586        0.00011738        0.00027441        0.00023963
      11         -0.697565        1.000000        0.00043176        0.00025851        0.00009026        0.00016179
      12         -0.694916        1.000000        0.00101814        0.00031569        0.00016248        0.00016691
      13         -0.682712        1.000000        0.00223538        0.00042922        0.00045519        0.00051545
      14         -0.678213        1.000000        0.00079020        0.00011889        0.00028207        0.00015248
      15         -0.625945        1.000000        0.96360832        0.01808472        0.01342130        0.00219719
      16         -0.615356        1.000000        0.93861734        0.00996069        0.01258834        0.00203409
      17         -0.614876        1.000000        0.83729870        0.00815969        0.00199211        0.00873536
      18         -0.608504        1.000000        0.00177540        0.00006654        0.00019603        0.00001770
      19         -0.606295        1.000000        0.66080373        0.00452832        0.00245249        0.00642727
      20         -0.598077        1.000000        0.80971964        0.00457513        0.00569742        0.00298470
      21         -0.597084        1.000000        0.03319305        0.00023495        0.00032859        0.00054055
      22         -0.595968        1.000000        0.45398423        0.00218039        0.00133509        0.00421527
      23         -0.588012        1.000000        0.12661956        0.00276847        0.00059759        0.00091355
      24         -0.587360        1.000000        0.62596380        0.00115385        0.00234479        0.00241403
      25         -0.586248        1.000000        0.63038356        0.00190150        0.00136064        0.00205952
      26         -0.585135        1.000000        0.09693142        0.00023712        0.00157530        0.00109952
      27         -0.584373        1.000000        0.42747284        0.00208854        0.00204598        0.00209962
      28         -0.583058        1.000000        0.65712494        0.00272832        0.00470107        0.00389662
      29         -0.580774        1.000000        0.72666279        0.00467091        0.00292849        0.00255810
      30         -0.580571        1.000000        0.92712547        0.00616896        0.00513777        0.00164614
      31         -0.579839        1.000000        0.82682510        0.00566941        0.00339127        0.00229586
      32         -0.578758        1.000000        0.03431618        0.00028655        0.00029931        0.00013542
      33         -0.578166        1.000000        0.56106069        0.00293563        0.00115999        0.00153506
      34         -0.576826        1.000000        0.60316681        0.00188561        0.00385377        0.00143692
      35         -0.575465        1.000000        0.87205570        0.00336280        0.00457148        0.00147787
      36         -0.574350        1.000000        0.93587592        0.00344519        0.00146224        0.00485088
      37         -0.572232        1.000000        0.81616888        0.00285086        0.00347102        0.00305903
      38         -0.570046        1.000000        0.82834700        0.00184551        0.00119297        0.00150717
      39         -0.569185        1.000000        0.15409452        0.00112062        0.00106460        0.00066274
      40         -0.568563        1.000000        0.64165873        0.00241220        0.00145614        0.00125693
      41         -0.567311        1.000000        0.81122899        0.00112904        0.00149637        0.00127607
      42         -0.567248        1.000000        0.93156086        0.00060191        0.00099431        0.00178297
      43         -0.565999        1.000000        0.97796008        0.00402402        0.00156213        0.00313785
      44         -0.564743        1.000000        0.75909433        0.00275172        0.00435808        0.00505869
      45         -0.564175        1.000000        0.94274691        0.00060606        0.00181462        0.00112674
      46         -0.563985        1.000000        0.74306331        0.00479632        0.00350613        0.00451462
      47         -0.562036        1.000000        0.49364813        0.00171936        0.00184059        0.00143287
      48         -0.559279        1.000000        0.51820442        0.00282362        0.00293311        0.00352579
      49         -0.558539        1.000000        0.68963426        0.00275136        0.00283095        0.00197692
      50         -0.556542        1.000000        0.81925059        0.00330964        0.00128426        0.00124270
      51         -0.554317        1.000000        0.39036286        0.00377991        0.00152344        0.00257820
      52         -0.552887        1.000000        0.75324453        0.00099211        0.00216017        0.00267678
      53         -0.552627        1.000000        0.60532419        0.00065022        0.00250362        0.00174622
      54         -0.552093        1.000000        0.92077679        0.00083853        0.00116139        0.00053703
      55         -0.551218        1.000000        0.93594413        0.00059829        0.00112227        0.00045840
      56         -0.550634        1.000000        0.94523495        0.00039316        0.00153584        0.00113765
      57         -0.550511        1.000000        0.92465167        0.00150711        0.00049147        0.00051402
      58         -0.550112        1.000000        0.76942136        0.00160021        0.00172765        0.00122792
      59         -0.549821        1.000000        0.62637968        0.00083218        0.00135945        0.00123685
      60         -0.545748        1.000000        0.82484981        0.00044734        0.00099497        0.00139772
      61         -0.544643        1.000000        0.91423441        0.00038665        0.00055966        0.00156596
      62         -0.544306        1.000000        0.96604755        0.00147203        0.00021373        0.00134512
      63         -0.544008        1.000000        0.96702531        0.00052480        0.00042288        0.00111827
      64         -0.543437        1.000000        0.40501352        0.00149582        0.00090980        0.00124827
      65         -0.498791        1.000000        0.00126012        0.00034778        0.00023779        0.00023390
      66         -0.492217        1.000000        0.00065800        0.00024153        0.00046290        0.00030580
      67         -0.488828        1.000000        0.00453194        0.00030124        0.00082015        0.00036142
      68         -0.482106        1.000000        0.00218908        0.00082988        0.00036189        0.00044971
      69         -0.477668        1.000000        0.00221889        0.00116182        0.00079113        0.00066984
      70         -0.463095        1.000000        0.00549790        0.00404285        0.00197439        0.00281705
      71         -0.458194        1.000000        0.01108122        0.00387490        0.00487285        0.00233929
      72         -0.456196        1.000000        0.18271383        0.04056458        0.04878825        0.02960066
      73         -0.452406        1.000000        0.14521913        0.02747778        0.04765026        0.04602152
      74         -0.448563        1.000000        0.12548159        0.02854863        0.03411701        0.04427792
      75         -0.444785        1.000000        0.12672347        0.04005617        0.04207881        0.03302132
      76         -0.441988        1.000000        0.13965175        0.03747369        0.03489740        0.03353562
      77         -0.439669        1.000000        0.14064378        0.03284135        0.03231001        0.02949659
      78         -0.437794        1.000000        0.12485699        0.03223804        0.03527228        0.03273431
      79         -0.432708        1.000000        0.12713669        0.02444142        0.03569062        0.03300481
      80         -0.424313        1.000000        0.00040555        0.00027106        0.00027263        0.00076894
      81         -0.422124        1.000000        0.00022302        0.00039675        0.00014792        0.00052789
      82         -0.416688        1.000000        0.00134341        0.00087083        0.00082885        0.00032289
      83         -0.415966        1.000000        0.00160872        0.00102008        0.00082371        0.00256868
      84         -0.415769        1.000000        0.00210836        0.00107995        0.00120209        0.00162236
      85         -0.413497        1.000000        0.00226783        0.00164324        0.00119732        0.00124790
      86         -0.411295        1.000000        0.00052609        0.00060562        0.00066969        0.00108251
      87         -0.411255        1.000000        0.00137701        0.00139199        0.00020576        0.00266519
      88         -0.409914        1.000000        0.00098222        0.00117175        0.00089336        0.00078193
      89         -0.407495        1.000000        0.00137227        0.00168591        0.00016465        0.00150856
      90         -0.401096        1.000000        0.00308536        0.00377418        0.00302008        0.00606300
      91         -0.399313        1.000000        0.00204680        0.00168401        0.00312833        0.00409260
      92         -0.395112        1.000000        0.00105696        0.00099035        0.00133393        0.00051494
      93         -0.393980        1.000000        0.00075258        0.00059268        0.00126308        0.00125752
      94         -0.305390        1.000000        0.03261718        0.50251534        0.40264675        0.04854090
      95         -0.292033        1.000000        0.02629067        0.37263279        0.55194149        0.02217621
      96         -0.289869        1.000000        0.02281305        0.33982625        0.07827833        0.53588221
      97         -0.277409        1.000000        0.01871291        0.34725624        0.06965793        0.47872210
      98         -0.270673        1.000000        0.01841909        0.17978140        0.48981733        0.08383777
      99         -0.264828        1.000000        0.00750403        0.24651958        0.13401249        0.39705047
     100         -0.261393        1.000000        0.00976018        0.18723472        0.16047507        0.38377449
     101         -0.258607        1.000000        0.01345943        0.20355200        0.36855728        0.15950228
     102         -0.257577        1.000000        0.01131896        0.12563016        0.48192624        0.13532570
     103         -0.256673        1.000000        0.02186730        0.38697392        0.24256629        0.09203038
     104         -0.255171        1.000000        0.00665140        0.40197399        0.24257479        0.15886911
     105         -0.252621        1.000000        0.00672911        0.41890307        0.11966918        0.30247464
     106         -0.252129        1.000000        0.01189787        0.27326982        0.18728025        0.32140959
     107         -0.250372        1.000000        0.01291844        0.26606050        0.33126365        0.14586335
     108         -0.248660        1.000000        0.01385620        0.22361478        0.17971162        0.36003338
     109         -0.245294        1.000000        0.01347812        0.41572270        0.15462277        0.19033743
     110         -0.244009        1.000000        0.01356279        0.33655453        0.19715109        0.19594870
     111         -0.243009        1.000000        0.01098863        0.38098024        0.26010833        0.14947109
     112         -0.240242        1.000000        0.00813072        0.06495986        0.49510326        0.28206573
     113         -0.239422        1.000000        0.00109676        0.13592763        0.05429597        0.79035967
     114         -0.238912        1.000000        0.01043371        0.22222426        0.19522549        0.40244856
     115         -0.236781        1.000000        0.01153022        0.19966939        0.28223079        0.30261042
     116         -0.235962        1.000000        0.00991146        0.28189402        0.28883047        0.25524988
     117         -0.235287        1.000000        0.00822906        0.16049749        0.32328334        0.36378172
     118         -0.233490        1.000000        0.00889804        0.14620926        0.34449851        0.35375353
     119         -0.232012        1.000000        0.01526946        0.27376658        0.33624839        0.18170714
     120         -0.229889        1.000000        0.01487853        0.15951191        0.24682532        0.35914191
     121         -0.228244        1.000000        0.01318281        0.05895612        0.33160610        0.40623715
     122         -0.226518        1.000000        0.01392321        0.26130023        0.21729554        0.28281191
     123         -0.225501        1.000000        0.00599812        0.11505838        0.59983499        0.19692037
     124         -0.225074        1.000000        0.01435978        0.26363815        0.29346326        0.22276931
     125         -0.221353        1.000000        0.00656467        0.21116531        0.25741204        0.41411282
     126         -0.220810        1.000000        0.00378999        0.48288747        0.20479727        0.21431316
     127         -0.218300        1.000000        0.00419699        0.22549447        0.16936573        0.53873747
     128         -0.217665        1.000000        0.00375841        0.36722228        0.21148029        0.31922345
     129         -0.216391        1.000000        0.00153900        0.46725711        0.26053138        0.25489587
     130         -0.214401        1.000000        0.00295226        0.25303981        0.17947800        0.51686397
     131         -0.213335        1.000000        0.00417055        0.43057424        0.23202933        0.26359209
     132         -0.210915        1.000000        0.00223710        0.39023129        0.11978049        0.45736614
     133         -0.209879        1.000000        0.00364438        0.25754099        0.20138249        0.47491283
     134         -0.208041        1.000000        0.00312910        0.29466223        0.32188369        0.32759046
     135         -0.207105        1.000000        0.00200145        0.22465028        0.59492193        0.13137744
     136         -0.206428        1.000000        0.00147703        0.37540485        0.35284406        0.25272218
     137         -0.205521        1.000000        0.00085903        0.40064055        0.25524499        0.33186843
     138         -0.204472        1.000000        0.00082752        0.45413010        0.18761614        0.34530313
     139         -0.204232        1.000000        0.00204570        0.27390365        0.27158191        0.41036832
     140         -0.203568        1.000000        0.00045363        0.39224138        0.24953723        0.35063333
     141         -0.202194        1.000000        0.00139228        0.33883882        0.34392923        0.29120076
     142         -0.201376        1.000000        0.00092311        0.39134031        0.08692289        0.50867097
     143         -0.199326        1.000000        0.00090228        0.42717080        0.21043285        0.34386531
     144         -0.198563        1.000000        0.00028842        0.09112830        0.64621103        0.25909832
     145         -0.198062        1.000000        0.00081686        0.51151285        0.18159877        0.29282039
     146         -0.197100        1.000000        0.00113154        0.31179785        0.27710555        0.39801142
     147         -0.196478        1.000000        0.00233779        0.41054684        0.29670419        0.22569348
     148         -0.195932        1.000000        0.00114243        0.29640281        0.39400746        0.28335748
     149         -0.195033        1.000000        0.00135158        0.28484748        0.50558515        0.18829618
     150         -0.193886        1.000000        0.00119121        0.31039030        0.31869272        0.34295421
     151         -0.193243        1.000000        0.00117950        0.22009123        0.34803560        0.39107219
     152         -0.193020        1.000000        0.00095550        0.21893985        0.51596503        0.22663939
     153         -0.192607        1.000000        0.00205779        0.42963562        0.32335246        0.20966640
     154         -0.191635        1.000000        0.00162500        0.35387454        0.38854508        0.23837611
     155         -0.191311        1.000000        0.00049923        0.19348679        0.53086561        0.26426427
     156         -0.190270        1.000000        0.00134895        0.23878491        0.42946954        0.30118338
     157         -0.189740        1.000000        0.00108111        0.20923336        0.39682243        0.37529012
     158         -0.188757        1.000000        0.00200523        0.31372753        0.34963148        0.27924627
     159         -0.188269        1.000000        0.00176533        0.38345950        0.54215400        0.06135167
     160         -0.187681        1.000000        0.00060476        0.46902519        0.40267045        0.11596613
     161         -0.186637        1.000000        0.00110068        0.31765513        0.47281753        0.18077954
     162         -0.186318        1.000000        0.00227500        0.48315139        0.23548112        0.25429882
     163         -0.185013        1.000000        0.00105177        0.38129775        0.26695323        0.34021521
     164         -0.184655        1.000000        0.00074552        0.34994719        0.25976960        0.37932523
     165         -0.184383        1.000000        0.00113506        0.27910759        0.36743967        0.33520417
     166         -0.183998        1.000000        0.00120967        0.25680294        0.43743581        0.28829759
     167         -0.182824        1.000000        0.00035806        0.31745387        0.35274936        0.32683009
     168         -0.182294        1.000000        0.00026333        0.22069942        0.35692658        0.41877042
     169         -0.181305        1.000000        0.00071646        0.29676076        0.39804702        0.27980856
     170         -0.180812        1.000000        0.00067288        0.43403069        0.39740890        0.15851460
     171         -0.180121        1.000000        0.00025237        0.35307852        0.41602081        0.22570817
     172         -0.179368        1.000000        0.00112902        0.42491143        0.26056277        0.30041514
     173         -0.178544        1.000000        0.00057974        0.29064064        0.39688843        0.30320230
     174         -0.178299        1.000000        0.00073193        0.25811459        0.19664294        0.53942177
     175         -0.178039        1.000000        0.00066345        0.29737302        0.19311962        0.50092330
     176         -0.177198        1.000000        0.00064240        0.35839489        0.15074362        0.45856834
     177         -0.176653        1.000000        0.00104691        0.53128985        0.14867524        0.28851812
     178         -0.176180        1.000000        0.00056756        0.32397102        0.16602367        0.49131199
     179         -0.175905        1.000000        0.00032680        0.31772199        0.21189680        0.45732040
     180         -0.175585        1.000000        0.00058062        0.08507178        0.86744617        0.04057719
     181         -0.175051        1.000000        0.00049568        0.65346102        0.14236663        0.18243096
     182         -0.173573        1.000000        0.00131305        0.18707334        0.23532470        0.52858527
     183         -0.172965        1.000000        0.00065807        0.26704572        0.24948533        0.45931478
     184         -0.172652        1.000000        0.00082424        0.34801776        0.26139250        0.37807903
     185         -0.172589        1.000000        0.00067703        0.44116423        0.26558560        0.27677159
     186         -0.172486        1.000000        0.00066638        0.13999634        0.65923958        0.18115155
     187         -0.172246        1.000000        0.00035872        0.23302562        0.24306884        0.50367321
     188         -0.171896        1.000000        0.00054196        0.05391443        0.55191604        0.38922871
     189         -0.171205        1.000000        0.00054168        0.38875634        0.26191089        0.34333852
     190         -0.171176        1.000000        0.00061014        0.50522787        0.18006705        0.30513676
     191         -0.170725        1.000000        0.00150096        0.30850682        0.27510128        0.38028966
     192         -0.170713        1.000000        0.00087618        0.40360817        0.23022867        0.33808956
     193         -0.170424        1.000000        0.00187771        0.28805137        0.40796400        0.26022389
     194         -0.170319        1.000000        0.00068880        0.33876941        0.42351765        0.21996562
     195         -0.170233        0.000000        0.00155483        0.28151665        0.28210557        0.38433023
     196         -0.169721        0.000000        0.00461470        0.34593602        0.28742064        0.32125948
     197         -0.169476        0.000000        0.00573692        0.36227373        0.26428808        0.34543690
     198         -0.169364        0.000000        0.00259766        0.27268914        0.37945744        0.26651111
     199         -0.169228        0.000000        0.00413009        0.28262425        0.26022821        0.40678150
     200         -0.168547        0.000000        0.00127011        0.28152991        0.19831228        0.41516709
     201         -0.165763        0.000000        0.01043284        0.50015266        0.41076626        0.07215764
     202         -0.065056        0.000000        0.01498954        0.12733575        0.11523564        0.01401406
     203         -0.060334        0.000000        0.01910331        0.05412505        0.15495079        0.05542840
     204         -0.056039        0.000000        0.02308921        0.17120610        0.01975857        0.04599383
     205         -0.047398        0.000000        0.02729570        0.13790189        0.01535792        0.09935824
     206         -0.043912        0.000000        0.01648803        0.08563465        0.12646889        0.05394729
     207         -0.042699        0.000000        0.02229238        0.04220153        0.14643076        0.09015488
     208         -0.042002        0.000000        0.02319781        0.13156756        0.07240424        0.07554864
     209         -0.040950        0.000000        0.02080458        0.02364659        0.10417030        0.15751076
     210         -0.039076        0.000000        0.01815377        0.04655772        0.07965573        0.14595481
     211         -0.036942        0.000000        0.02112556        0.08601508        0.13695565        0.04962238
     212         -0.034960        0.000000        0.01919323        0.06368298        0.06786023        0.14683108
     213         -0.032563        0.000000        0.02092275        0.05801293        0.04907557        0.16728364
     214         -0.031885        0.000000        0.02173820        0.08137263        0.02394506        0.16908689
     215         -0.031379        0.000000        0.01935768        0.15678706        0.06820290        0.05938389
     216         -0.030644        0.000000        0.02296334        0.17894408        0.04894297        0.06097688
     217         -0.028282        0.000000        0.01887717        0.07211921        0.01497701        0.19618126
     218         -0.026988        0.000000        0.01860031        0.13435567        0.08605249        0.05331702
     219         -0.022580        0.000000        0.01285163        0.19813211        0.06648443        0.02698503
     220         -0.018135        0.000000        0.01521223        0.04121274        0.16343590        0.08959807
     221         -0.017228        0.000000        0.02786750        0.05665110        0.18298580        0.05117301
     222         -0.016683        0.000000        0.01532212        0.05349970        0.18936231        0.04315980
     223         -0.014019        0.000000        0.01747574        0.06744376        0.17903962        0.03614032
     224         -0.012047        0.000000        0.01839187        0.05816524        0.14191273        0.09897226
     225         -0.003510        0.000000        0.01261481        0.04585738        0.00606306        0.25459229
     226          0.079345        0.000000        0.00002872        0.00030570        0.00099084        0.00056282
     227          0.087049        0.000000        0.00006083        0.00027526        0.00139112        0.00033629
     228          0.088808        0.000000        0.00001391        0.00029180        0.00022160        0.00029758
     229          0.095704        0.000000        0.00003464        0.00077562        0.00033514        0.00041766
     230          0.100781        0.000000        0.00005874        0.00106193        0.00065834        0.00036442
     231          0.103741        0.000000        0.00004617        0.00066242        0.00101721        0.00038299
     232          0.105069        0.000000        0.00006755        0.00129038        0.00020591        0.00089571
     233          0.141465        0.000000        0.00001396        0.00017287        0.00017326        0.00016619
     234          0.153662        0.000000        0.00001406        0.00011159        0.00042249        0.00003916
     235          0.158387        0.000000        0.00000983        0.00010191        0.00015346        0.00011263
     236          0.171177        0.000000        0.00000085        0.00006231        0.00006138        0.00007899
     237          0.208224        0.000000        0.00001171        0.00008389        0.00002996        0.00006155
     238          0.217822        0.000000        0.00000599        0.00021887        0.00037847        0.00019783
     239          0.247262        0.000000        0.00002572        0.00038522        0.00020222        0.00012738
     240          0.276283        0.000000        0.00012512        0.00149945        0.00218431        0.00052642
     241          0.284896        0.000000        0.00001864        0.00027145        0.00093512        0.00019512
     242          0.291419        0.000000        0.00020481        0.00432427        0.00060818        0.00181909
     243          0.294611        0.000000        0.00001913        0.00018899        0.00049535        0.00070248
     244          0.297918        0.000000        0.00048891        0.00529892        0.00086074        0.00428845
     245          0.299493        0.000000        0.00063142        0.00757577        0.00307437        0.00235357
     246          0.300978        0.000000        0.00046825        0.00552642        0.00293399        0.00397008
     247          0.301297        0.000000        0.00021900        0.00265741        0.00356992        0.00069701
     248          0.302725        0.000000        0.00028592        0.00348558        0.00204864        0.00233133
     249          0.308435        0.000000        0.00025983        0.00430755        0.00236944        0.00128411
     250          0.321945        0.000000        0.00038265        0.00718910        0.00093944        0.00295151
     251          0.332454        0.000000        0.00078133        0.00833829        0.00127552        0.00600658
     252          0.333109        0.000000        0.00095829        0.01032783        0.00082173        0.00810874
     253          0.349335        0.000000        0.00060874        0.00758595        0.00704167        0.00122456
     254          0.438918        0.000000        0.00003531        0.00015097        0.00026406        0.00003712
     255          0.445516        0.000000        0.00002344        0.00018498        0.00010364        0.00002057
     256          0.448960        0.000000        0.00001622        0.00044519        0.00048031        0.00005111
     257          0.450290        0.000000        0.00000655        0.00005719        0.00003909        0.00011414
     258          0.450642        0.000000        0.00002011        0.00014060        0.00009299        0.00017454
     259          0.453127        0.000000        0.00002813        0.00029039        0.00009164        0.00035479