# Projected DOS for atomic kind I at iteration step i = 0, E(Fermi) =    -0.170858 a.u.
#     MO Eigenvalue [a.u.]      Occupation                 s                py                pz                px
       1         -0.976805        1.000000        0.00000112        0.00000994        0.00001734        0.00000206
       2         -0.972779        1.000000        0.00003715        0.00009471        0.00018010        0.00001472
       3         -0.967718        1.000000        0.00002088        0.00010572        0.00010207        0.00003838
       4         -0.958046        1.000000        0.00004407        0.00015854        0.00007008        0.00010827
       5         -0.950356        1.000000        0.00008220        0.00020654        0.00014736        0.00012628
       6         -0.939975        1.000000        0.00017043        0.00038614        0.00007484        0.00038411
       7         -0.933549        1.000000        0.00012571        0.00033125        0.00032495        0.00008386
       8         -0.709850        1.000000        0.00016868        0.00012552        0.00010068        0.00006965
       9         -0.709530        1.000000        0.00016352        0.00005561        0.00006879        0.00014537
      10         -0.703126        1.000000        0.00046736        0.00011736        0.00027456        0.00023962
      11         -0.697907        1.000000        0.00043381        0.00025843        0.00009023        0.00016176
      12         -0.695247        1.000000        0.00102045        0.00031597        0.00016263        0.00016698
      13         -0.683043        1.000000        0.00224401        0.00042945        0.00045525        0.00051564
      14         -0.678545        1.000000        0.00079345        0.00011889        0.00028243        0.00015265
      15         -0.626274        1.000000        0.96355059        0.01810839        0.01344432        0.00220036
      16         -0.615796        1.000000        0.93851330        0.00996416        0.01257980        0.00205416
      17         -0.615435        1.000000        0.84157807        0.00820772        0.00200361        0.00879688
      18         -0.608868        1.000000        0.00179864        0.00006654        0.00019614        0.00001759
      19         -0.606709        1.000000        0.65922484        0.00452661        0.00246121        0.00641038
      20         -0.598599        1.000000        0.81347239        0.00458620        0.00572340        0.00299657
      21         -0.597453        1.000000        0.03361124        0.00023554        0.00033076        0.00054191
      22         -0.596372        1.000000        0.44863674        0.00215217        0.00131797        0.00418758
      23         -0.588413        1.000000        0.14061895        0.00279100        0.00061953        0.00093747
      24         -0.587786        1.000000        0.62501566        0.00119755        0.00233961        0.00240180
      25         -0.586773        1.000000        0.63759306        0.00188254        0.00137903        0.00203329
      26         -0.585515        1.000000        0.09941279        0.00022907        0.00160413        0.00112748
      27         -0.584819        1.000000        0.45440676        0.00197939        0.00226677        0.00215556
      28         -0.583595        1.000000        0.62313629        0.00277552        0.00445689        0.00387591
      29         -0.581250        1.000000        0.71703392        0.00467419        0.00284603        0.00258667
      30         -0.580930        1.000000        0.91819075        0.00611532        0.00488875        0.00182134
      31         -0.580279        1.000000        0.85455627        0.00584300        0.00373622        0.00214585
      32         -0.579127        1.000000        0.03579745        0.00028892        0.00029554        0.00013353
      33         -0.578589        1.000000        0.55402748        0.00285510        0.00114425        0.00149508
      34         -0.577268        1.000000        0.59518704        0.00186446        0.00383977        0.00143706
      35         -0.575916        1.000000        0.87173262        0.00338208        0.00455878        0.00150988
      36         -0.574968        1.000000        0.93324155        0.00341262        0.00146939        0.00478278
      37         -0.572869        1.000000        0.82189891        0.00282480        0.00325632        0.00291598
      38         -0.570870        1.000000        0.83600384        0.00179402        0.00130022        0.00155287
      39         -0.569624        1.000000        0.23036233        0.00127440        0.00108656        0.00077493
      40         -0.569186        1.000000        0.57735294        0.00230407        0.00143388        0.00114824
      41         -0.567960        1.000000        0.79264695        0.00118586        0.00156337        0.00130328
      42         -0.567820        1.000000        0.94599094        0.00055529        0.00098664        0.00175765
      43         -0.566443        1.000000        0.97783387        0.00399644        0.00155731        0.00313206
      44         -0.565036        1.000000        0.78508385        0.00193384        0.00335537        0.00367203
      45         -0.564754        1.000000        0.90938225        0.00143443        0.00273767        0.00250447
      46         -0.564689        1.000000        0.75102934        0.00469934        0.00346542        0.00449023
      47         -0.562421        1.000000        0.49618226        0.00175809        0.00192725        0.00151071
      48         -0.559836        1.000000        0.56649996        0.00291388        0.00313101        0.00319854
      49         -0.559168        1.000000        0.65344140        0.00262731        0.00260565        0.00231379
      50         -0.557265        1.000000        0.81974743        0.00329645        0.00130417        0.00122733
      51         -0.554820        1.000000        0.40591090        0.00377546        0.00158302        0.00263844
      52         -0.553507        1.000000        0.80059603        0.00105171        0.00200561        0.00275928
      53         -0.553080        1.000000        0.57418658        0.00063341        0.00261617        0.00155233
      54         -0.552889        1.000000        0.89341954        0.00084418        0.00122241        0.00059709
      55         -0.551977        1.000000        0.93736710        0.00057027        0.00115488        0.00044001
      56         -0.551248        1.000000        0.92073052        0.00160200        0.00046997        0.00048868
      57         -0.550866        1.000000        0.85880277        0.00106630        0.00163789        0.00117664
      58         -0.550675        1.000000        0.81656176        0.00076274        0.00151853        0.00129581
      59         -0.550469        1.000000        0.64748763        0.00091333        0.00137765        0.00112991
      60         -0.546547        1.000000        0.82789179        0.00041948        0.00086790        0.00143909
      61         -0.545296        1.000000        0.91896154        0.00051798        0.00050991        0.00149851
      62         -0.545178        1.000000        0.95885025        0.00126402        0.00027159        0.00133597
      63         -0.544912        1.000000        0.96671000        0.00053154        0.00043203        0.00107860
      64         -0.543953        1.000000        0.38111210        0.00158219        0.00094458        0.00123214
      65         -0.499117        1.000000        0.00125435        0.00034817        0.00023785        0.00023373
      66         -0.492545        1.000000        0.00065385        0.00024151        0.00046312        0.00030582
      67         -0.489167        1.000000        0.00447357        0.00030131        0.00082138        0.00036146
      68         -0.482440        1.000000        0.00215640        0.00082881        0.00036233        0.00045064
      69         -0.477993        1.000000        0.00221341        0.00116231        0.00079163        0.00067047
      70         -0.463428        1.000000        0.00569537        0.00411226        0.00205478        0.00285885
      71         -0.458536        1.000000        0.01303955        0.00435381        0.00546171        0.00266619
      72         -0.456715        1.000000        0.18023346        0.04002886        0.04821515        0.02924213
      73         -0.452924        1.000000        0.14502280        0.02751666        0.04759655        0.04609770
      74         -0.448952        1.000000        0.12415452        0.02858124        0.03413221        0.04463842
      75         -0.445150        1.000000        0.12688176        0.03966019        0.04281412        0.03307145
      76         -0.442463        1.000000        0.13823235        0.03791643        0.03432011        0.03358660
      77         -0.440054        1.000000        0.13979744        0.03284925        0.03238106        0.02948689
      78         -0.438067        1.000000        0.12379194        0.03234514        0.03534776        0.03284446
      79         -0.432961        1.000000        0.12692405        0.02444996        0.03571499        0.03307670
      80         -0.424625        1.000000        0.00040465        0.00027086        0.00027276        0.00076864
      81         -0.422438        1.000000        0.00022218        0.00039682        0.00014787        0.00052814
      82         -0.417003        1.000000        0.00135341        0.00087550        0.00083075        0.00032415
      83         -0.416282        1.000000        0.00159990        0.00101964        0.00082746        0.00257059
      84         -0.416083        1.000000        0.00211168        0.00108008        0.00120314        0.00161908
      85         -0.413824        1.000000        0.00227582        0.00164294        0.00120026        0.00125188
      86         -0.411606        1.000000        0.00052595        0.00060677        0.00067044        0.00108369
      87         -0.411570        1.000000        0.00135896        0.00138620        0.00020459        0.00266730
      88         -0.410237        1.000000        0.00097555        0.00117468        0.00089432        0.00078237
      89         -0.407808        1.000000        0.00137027        0.00168614        0.00016442        0.00150808
      90         -0.401402        1.000000        0.00306995        0.00378263        0.00301526        0.00606145
      91         -0.399621        1.000000        0.00204478        0.00168246        0.00313472        0.00411629
      92         -0.395424        1.000000        0.00105245        0.00099038        0.00133482        0.00051418
      93         -0.394286        1.000000        0.00074929        0.00059233        0.00126624        0.00126226
      94         -0.305807        1.000000        0.03266533        0.50241279        0.40272294        0.04853619
      95         -0.292671        1.000000        0.02633050        0.37312267        0.55156730        0.02209923
      96         -0.290742        1.000000        0.02284313        0.33995251        0.07842876        0.53600350
      97         -0.277959        1.000000        0.01870056        0.34831546        0.07061298        0.47710347
      98         -0.271335        1.000000        0.01835316        0.17962619        0.49087808        0.08447347
      99         -0.265657        1.000000        0.00766844        0.24465492        0.12420397        0.41110082
     100         -0.262076        1.000000        0.00970660        0.17566506        0.16056553        0.39474156
     101         -0.259141        1.000000        0.01364351        0.20156074        0.36589719        0.16393143
     102         -0.258218        1.000000        0.01114607        0.11585811        0.49680889        0.13129939
     103         -0.257284        1.000000        0.02197794        0.38548435        0.24126535        0.09420450
     104         -0.255523        1.000000        0.00647072        0.41694858        0.24800543        0.14220363
     105         -0.252997        1.000000        0.01006317        0.32574753        0.14685372        0.33586613
     106         -0.252594        1.000000        0.00882127        0.35629712        0.16054339        0.29676151
     107         -0.250850        1.000000        0.01279033        0.27304750        0.32617152        0.14511512
     108         -0.249115        1.000000        0.01354469        0.23210827        0.17963473        0.35337443
     109         -0.245865        1.000000        0.01357680        0.40839286        0.15596636        0.19747569
     110         -0.244410        1.000000        0.01346263        0.33897103        0.19526343        0.19642778
     111         -0.243458        1.000000        0.01110969        0.38763651        0.25030498        0.14767004
     112         -0.240692        1.000000        0.00844889        0.06444773        0.48984922        0.28162987
     113         -0.239740        1.000000        0.00100724        0.13509584        0.05028934        0.79674053
     114         -0.239440        1.000000        0.01092515        0.23529756        0.18902152        0.38936953
     115         -0.237180        1.000000        0.01181710        0.21126909        0.26388259        0.30491698
     116         -0.236436        1.000000        0.00951502        0.28411415        0.32351187        0.22563672
     117         -0.235676        1.000000        0.00792924        0.14327231        0.32713443        0.38357323
     118         -0.233864        1.000000        0.00856815        0.14602358        0.34544733        0.35883966
     119         -0.232615        1.000000        0.01494447        0.26317666        0.34017574        0.19234498
     120         -0.230261        1.000000        0.01488070        0.15606670        0.24434210        0.36529276
     121         -0.228598        1.000000        0.01307531        0.05791549        0.33318564        0.40748663
     122         -0.226913        1.000000        0.01377673        0.25994285        0.22333623        0.28481598
     123         -0.225839        1.000000        0.00591548        0.11610348        0.59936384        0.19742813
     124         -0.225418        1.000000        0.01426151        0.26122138        0.29952005        0.21679576
     125         -0.221864        1.000000        0.00759650        0.18961262        0.27912325        0.39840994
     126         -0.221272        1.000000        0.00300601        0.50331421        0.18024434        0.23029503
     127         -0.218736        1.000000        0.00385758        0.23426272        0.15943269        0.54579530
     128         -0.218104        1.000000        0.00376638        0.36150197        0.21506861        0.32161242
     129         -0.216747        1.000000        0.00147769        0.47022570        0.26054376        0.25360372
     130         -0.214724        1.000000        0.00289079        0.25801972        0.17828182        0.51334325
     131         -0.213701        1.000000        0.00414227        0.43542210        0.23034863        0.26043533
     132         -0.211304        1.000000        0.00232898        0.38537419        0.12049935        0.46013481
     133         -0.210298        1.000000        0.00354387        0.25389164        0.20058868        0.48133929
     134         -0.208405        1.000000        0.00323900        0.29001670        0.32731336        0.32411145
     135         -0.207479        1.000000        0.00195859        0.22531624        0.59440439        0.13208424
     136         -0.206749        1.000000        0.00141766        0.37782586        0.34713706        0.25689907
     137         -0.205856        1.000000        0.00091973        0.39667353        0.26833880        0.32200247
     138         -0.204829        1.000000        0.00128871        0.40457711        0.18805321        0.38619768
     139         -0.204608        1.000000        0.00146564        0.32904133        0.26232148        0.37459790
     140         -0.203871        1.000000        0.00043551        0.39708827        0.24710257        0.34841758
     141         -0.202630        1.000000        0.00142199        0.35222633        0.34289380        0.27726412
     142         -0.201721        1.000000        0.00086379        0.38015933        0.08389054        0.52339068
     143         -0.199739        1.000000        0.00090531        0.43542416        0.20934766        0.33603655
     144         -0.198817        1.000000        0.00027868        0.07587050        0.66350767        0.25716964
     145         -0.198481        1.000000        0.00076751        0.52108119        0.15998711        0.30561124
     146         -0.197401        1.000000        0.00109184        0.31011639        0.26868798        0.40869917
     147         -0.196945        1.000000        0.00241200        0.42534525        0.28798150        0.21719255
     148         -0.196318        1.000000        0.00099380        0.28085216        0.41731395        0.27839840
     149         -0.195369        1.000000        0.00131038        0.29374073        0.49995271        0.18592088
     150         -0.194362        1.000000        0.00128329        0.29156530        0.32500881        0.34441375
     151         -0.193771        1.000000        0.00124300        0.22237078        0.34835678        0.37925348
     152         -0.193423        1.000000        0.00079234        0.23405156        0.50371364        0.24513368
     153         -0.192988        1.000000        0.00193860        0.42686935        0.33491150        0.20223468
     154         -0.192036        1.000000        0.00151628        0.34990201        0.39576485        0.23592483
     155         -0.191745        1.000000        0.00053465        0.19234399        0.52253107        0.27201327
     156         -0.190630        1.000000        0.00134818        0.24069795        0.40760192        0.31864537
     157         -0.190078        1.000000        0.00103000        0.20395094        0.42794246        0.35036925
     158         -0.189313        1.000000        0.00194059        0.33078283        0.32803898        0.28679935
     159         -0.188746        1.000000        0.00163579        0.38541285        0.52967868        0.07480492
     160         -0.188147        1.000000        0.00079209        0.40634613        0.44013014        0.13510310
     161         -0.187261        1.000000        0.00079428        0.37281738        0.46155464        0.14485550
     162         -0.186588        1.000000        0.00231539        0.50899620        0.21732685        0.24613225
     163         -0.185264        1.000000        0.00073432        0.36525569        0.24045689        0.38502396
     164         -0.185163        1.000000        0.00125678        0.41921158        0.23430655        0.32891762
     165         -0.184687        1.000000        0.00125671        0.19803379        0.47293919        0.30890779
     166         -0.184294        1.000000        0.00092374        0.25968873        0.41527337        0.31322695
     167         -0.182998        1.000000        0.00033649        0.29654131        0.35537729        0.34492205
     168         -0.182538        1.000000        0.00031060        0.25571734        0.33699749        0.40263222
     169         -0.181890        1.000000        0.00077014        0.34396286        0.39423641        0.24352926
     170         -0.181782        1.000000        0.00081315        0.41425584        0.37238220        0.19930778
     171         -0.180538        1.000000        0.00027434        0.29378812        0.47370108        0.22369164
     172         -0.179791        1.000000        0.00112855        0.43872401        0.26352053        0.28234746
     173         -0.178962        1.000000        0.00065458        0.32059098        0.35511513        0.31385733
     174         -0.178751        1.000000        0.00061092        0.31758286        0.26314540        0.40931442
     175         -0.178352        1.000000        0.00087431        0.21130826        0.20316481        0.58050542
     176         -0.177810        1.000000        0.00063620        0.46568270        0.14665463        0.36066828
     177         -0.177193        1.000000        0.00094248        0.45226255        0.14199339        0.36804351
     178         -0.176740        1.000000        0.00042843        0.36893891        0.13178612        0.47913851
     179         -0.176271        1.000000        0.00039861        0.24943354        0.23903246        0.50235642
     180         -0.175913        1.000000        0.00059224        0.07793840        0.88471005        0.03098974
     181         -0.175469        1.000000        0.00043320        0.68755590        0.15827587        0.13427023
     182         -0.173988        1.000000        0.00128405        0.15720397        0.30933176        0.48774652
     183         -0.173604        1.000000        0.00071434        0.38364514        0.15173308        0.42227877
     184         -0.173184        1.000000        0.00087369        0.39819819        0.30417163        0.26485312
     185         -0.173126        1.000000        0.00126722        0.37070208        0.24892047        0.36312001
     186         -0.172902        1.000000        0.00055723        0.19377397        0.62396099        0.17664751
     187         -0.172763        1.000000        0.00029295        0.27768807        0.18276869        0.52298158
     188         -0.172500        1.000000        0.00052724        0.14264066        0.57176735        0.27433169
     189         -0.172455        1.000000        0.00061662        0.14864469        0.38360547        0.45535561
     190         -0.172083        1.000000        0.00054020        0.30401751        0.24107397        0.39946489
     191         -0.171702        1.000000        0.00048915        0.39034375        0.25139660        0.33148549
     192         -0.171659        1.000000        0.00230381        0.25331401        0.28063311        0.39038864
     193         -0.171569        1.000000        0.00096133        0.43376242        0.19240593        0.36559259
     194         -0.171162        1.000000        0.00084264        0.37683804        0.39535620        0.19310690
     195         -0.170858        1.000000        0.00160910        0.26702944        0.33739699        0.37920274
     196         -0.170665        0.000000        0.00466634        0.36784964        0.27051485        0.33388247
     197         -0.170502        0.000000        0.00398891        0.28996716        0.27665521        0.39636990
     198         -0.170357        0.000000        0.00379639        0.32885778        0.44965998        0.16561794
     199         -0.170251        0.000000        0.00390071        0.31674649        0.16658636        0.47696601
     200         -0.169705        0.000000        0.00157362        0.28693092        0.21408923        0.40408281
     201         -0.166208        0.000000        0.01061874        0.50895421        0.40689851        0.06884285
     202         -0.065400        0.000000        0.01498800        0.12681824        0.11507914        0.01397198
     203         -0.060777        0.000000        0.01906337        0.05365132        0.15392875        0.05533104
     204         -0.056342        0.000000        0.02307825        0.17175882        0.01911929        0.04518491
     205         -0.047621        0.000000        0.02723878        0.13781711        0.01519318        0.09767114
     206         -0.044222        0.000000        0.01652408        0.08589809        0.12489649        0.05468131
     207         -0.043035        0.000000        0.02223959        0.04450561        0.13713165        0.09704501
     208         -0.042447        0.000000        0.02324811        0.12592170        0.07369836        0.07732345
     209         -0.041314        0.000000        0.02096790        0.02475302        0.11132283        0.14710137
     210         -0.039467        0.000000        0.01811556        0.04728122        0.07920588        0.14394539
     211         -0.037261        0.000000        0.02116432        0.08702035        0.13657200        0.04808471
     212         -0.035264        0.000000        0.01919272        0.06378273        0.06691895        0.14689911
     213         -0.032861        0.000000        0.02095882        0.05916126        0.05067152        0.16374822
     214         -0.032225        0.000000        0.02116058        0.10036084        0.02584447        0.15005537
     215         -0.031829        0.000000        0.02008143        0.13459183        0.06593822        0.07836361
     216         -0.031045        0.000000        0.02310109        0.17913266        0.04855938        0.06001316
     217         -0.028599        0.000000        0.01882533        0.06929812        0.01411809        0.19906581
     218         -0.027290        0.000000        0.01856373        0.13383394        0.08608255        0.05272545
     219         -0.022878        0.000000        0.01284370        0.19721251        0.06692795        0.02704066
     220         -0.018544        0.000000        0.01528979        0.03913004        0.16136736        0.09275163
     221         -0.017664        0.000000        0.02800024        0.05654725        0.18123939        0.05135513
     222         -0.017045        0.000000        0.01532855        0.05424365        0.18992953        0.04029256
     223         -0.014422        0.000000        0.01736942        0.06885447        0.17685549        0.03564814
     224         -0.012507        0.000000        0.01834842        0.05717618        0.14337327        0.09638387
     225         -0.003979        0.000000        0.01264824        0.04578106        0.00618138        0.25197080
     226          0.079033        0.000000        0.00002869        0.00030493        0.00098989        0.00056265
     227          0.086726        0.000000        0.00006078        0.00027509        0.00139095        0.00033560
     228          0.088490        0.000000        0.00001389        0.00029142        0.00022133        0.00029699
     229          0.095384        0.000000        0.00003455        0.00077654        0.00033412        0.00041701
     230          0.100474        0.000000        0.00005871        0.00106116        0.00065791        0.00036381
     231          0.103429        0.000000        0.00004608        0.00066347        0.00101689        0.00038283
     232          0.104759        0.000000        0.00006750        0.00128946        0.00020559        0.00089585
     233          0.141153        0.000000        0.00001394        0.00017315        0.00017308        0.00016608
     234          0.153357        0.000000        0.00001404        0.00011179        0.00042247        0.00003906
     235          0.158098        0.000000        0.00000983        0.00010142        0.00015335        0.00011245
     236          0.170866        0.000000        0.00000084        0.00006208        0.00006133        0.00007886
     237          0.207904        0.000000        0.00001171        0.00008393        0.00002985        0.00006152
     238          0.217521        0.000000        0.00000598        0.00021814        0.00037828        0.00019761
     239          0.246945        0.000000        0.00002573        0.00038523        0.00020038        0.00012718
     240          0.275971        0.000000        0.00012500        0.00150028        0.00218491        0.00052608
     241          0.284573        0.000000        0.00001857        0.00027136        0.00093505        0.00019539
     242          0.291103        0.000000        0.00020423        0.00432272        0.00060710        0.00181844
     243          0.294289        0.000000        0.00001906        0.00018845        0.00049495        0.00070107
     244          0.297619        0.000000        0.00048815        0.00529537        0.00085987        0.00428830
     245          0.299191        0.000000        0.00063166        0.00758699        0.00305252        0.00236688
     246          0.300676        0.000000        0.00046672        0.00551596        0.00295789        0.00395693
     247          0.300986        0.000000        0.00021913        0.00266265        0.00356944        0.00069996
     248          0.302438        0.000000        0.00028609        0.00349067        0.00204646        0.00233132
     249          0.308149        0.000000        0.00025920        0.00430776        0.00236937        0.00128257
     250          0.321630        0.000000        0.00038192        0.00719586        0.00093648        0.00295027
     251          0.332158        0.000000        0.00078187        0.00834476        0.00127126        0.00601205
     252          0.332808        0.000000        0.00095691        0.01032095        0.00082606        0.00810061
     253          0.349046        0.000000        0.00060726        0.00758509        0.00704216        0.00122536
     254          0.438646        0.000000        0.00003528        0.00015091        0.00026412        0.00003715
     255          0.445245        0.000000        0.00002343        0.00018490        0.00010373        0.00002058
     256          0.448684        0.000000        0.00001628        0.00044475        0.00048131        0.00005075
     257          0.450006        0.000000        0.00000653        0.00005730        0.00003923        0.00011406
     258          0.450366        0.000000        0.00002004        0.00014008        0.00009240        0.00017488
     259          0.452847        0.000000        0.00002805        0.00029040        0.00009172        0.00035416