# Projected DOS for atomic kind N at iteration step i = 0, E(Fermi) =    -0.171324 a.u.
#     MO Eigenvalue [a.u.]      Occupation                 s                py                pz                px
       1         -0.952921        1.000000        0.61487290        0.00024036        0.00001479        0.00009703
       2         -0.945306        1.000000        0.61476091        0.00004659        0.00001429        0.00023582
       3         -0.942426        1.000000        0.61147317        0.00014769        0.00000092        0.00004794
       4         -0.940424        1.000000        0.61384830        0.00016796        0.00035802        0.00001422
       5         -0.936657        1.000000        0.61274568        0.00005596        0.00011325        0.00005394
       6         -0.936356        1.000000        0.61321195        0.00000028        0.00003036        0.00037173
       7         -0.926083        1.000000        0.61321684        0.00002458        0.00015369        0.00001553
       8         -0.693810        1.000000        0.01614757        0.00273740        0.00067257        0.19247829
       9         -0.690003        1.000000        0.01758712        0.00182042        0.00077719        0.18813411
      10         -0.684865        1.000000        0.01733132        0.00100544        0.00434492        0.18427479
      11         -0.683700        1.000000        0.01506291        0.00335611        0.03681957        0.15840580
      12         -0.683458        1.000000        0.01524375        0.00042818        0.06127332        0.13524528
      13         -0.680384        1.000000        0.01620032        0.00083013        0.08158099        0.11183358
      14         -0.671847        1.000000        0.01697330        0.01211204        0.05788306        0.12123971
      15         -0.640367        1.000000        0.00052128        0.00707589        0.00035710        0.00015012
      16         -0.631104        1.000000        0.00007280        0.00186327        0.00020887        0.00002233
      17         -0.622824        1.000000        0.00001782        0.00010720        0.00098262        0.00001695
      18         -0.619653        1.000000        0.00002904        0.00004089        0.00371324        0.00010385
      19         -0.614886        1.000000        0.00016629        0.00011144        0.00912764        0.00018785
      20         -0.603481        1.000000        0.00011090        0.00669897        0.01417828        0.00146852
      21         -0.597755        1.000000        0.00029104        0.00811889        0.01429160        0.00526729
      22         -0.594224        1.000000        0.00018011        0.00902219        0.00316728        0.00041584
      23         -0.594030        1.000000        0.00020484        0.00397078        0.00996636        0.00028638
      24         -0.592276        1.000000        0.00008848        0.01161860        0.01218008        0.00398643
      25         -0.591212        1.000000        0.00016299        0.00803590        0.07158414        0.02011289
      26         -0.587664        1.000000        0.00028645        0.01073606        0.01283777        0.00032121
      27         -0.586485        1.000000        0.00024194        0.09125186        0.01902918        0.00220192
      28         -0.585401        1.000000        0.00009769        0.14581232        0.01434987        0.00152984
      29         -0.583846        1.000000        0.00015307        0.00575673        0.01301952        0.00313784
      30         -0.582997        1.000000        0.00014871        0.05087150        0.04502985        0.00283904
      31         -0.582420        1.000000        0.00034280        0.07011568        0.02954939        0.00303229
      32         -0.582208        1.000000        0.00016627        0.06434566        0.01375712        0.00145275
      33         -0.580324        1.000000        0.00010048        0.02013150        0.02310356        0.00467330
      34         -0.580057        1.000000        0.00012430        0.03227856        0.02345351        0.00384338
      35         -0.577897        1.000000        0.00022418        0.04005320        0.04895218        0.01103325
      36         -0.577824        1.000000        0.00001033        0.03107698        0.40736296        0.00319845
      37         -0.576943        1.000000        0.00000927        0.02644136        0.08834960        0.00240584
      38         -0.575892        1.000000        0.00019875        0.09097974        0.01667639        0.00223091
      39         -0.574955        1.000000        0.00006729        0.03805769        0.01392854        0.00253258
      40         -0.574744        1.000000        0.00004676        0.01389784        0.04911888        0.01226336
      41         -0.574171        1.000000        0.00012601        0.03698316        0.05403909        0.01216286
      42         -0.573190        1.000000        0.00025984        0.03904675        0.15059276        0.03832459
      43         -0.572514        1.000000        0.00001658        0.00849814        0.00245619        0.00235980
      44         -0.571375        1.000000        0.00000328        0.00158110        0.00089135        0.00055240
      45         -0.570494        1.000000        0.00003806        0.14035820        0.10772154        0.04504732
      46         -0.569629        1.000000        0.00034155        0.07881109        0.04346019        0.00115446
      47         -0.568007        1.000000        0.00023468        0.45467303        0.06186212        0.00042729
      48         -0.567088        1.000000        0.00023123        0.00747295        0.06575938        0.01054407
      49         -0.565591        1.000000        0.00010241        0.03160856        0.00593899        0.00159678
      50         -0.564140        1.000000        0.00008830        0.03360864        0.38489029        0.00457063
      51         -0.562719        1.000000        0.00029846        0.08402437        0.31616091        0.12909042
      52         -0.560392        1.000000        0.00043702        0.17554123        0.12739080        0.04274704
      53         -0.559963        1.000000        0.00047879        0.28161629        0.12526950        0.03264627
      54         -0.559468        1.000000        0.00009905        0.00883422        0.02026269        0.00730194
      55         -0.557586        1.000000        0.00117001        0.11038009        0.21468015        0.15714535
      56         -0.554222        1.000000        0.00010601        0.02757558        0.10393952        0.02555384
      57         -0.553683        1.000000        0.00046527        0.07901243        0.02652594        0.00540450
      58         -0.552344        1.000000        0.00088675        0.13231751        0.01113546        0.00068433
      59         -0.551138        1.000000        0.00090990        0.27848834        0.17486098        0.00547056
      60         -0.545806        1.000000        0.00050465        0.00370359        0.33602542        0.14338081
      61         -0.544886        1.000000        0.00084283        0.32307181        0.03728855        0.02796204
      62         -0.541934        1.000000        0.00119671        0.29009315        0.01783651        0.01425955
      63         -0.538424        1.000000        0.00054004        0.29671673        0.09275848        0.00674317
      64         -0.537831        1.000000        0.00019687        0.41407879        0.00127946        0.04054908
      65         -0.473928        1.000000        0.00851740        0.00107303        0.00185388        0.43724092
      66         -0.469954        1.000000        0.00866013        0.00230490        0.00281899        0.42527858
      67         -0.465117        1.000000        0.00172743        0.00062844        0.00147445        0.08828207
      68         -0.464752        1.000000        0.00699062        0.00234069        0.00501895        0.33893955
      69         -0.464187        1.000000        0.00882816        0.00124426        0.11814777        0.27746490
      70         -0.463805        1.000000        0.00922752        0.01062616        0.09484263        0.32681686
      71         -0.461691        1.000000        0.00534207        0.00347928        0.09995962        0.13601834
      72         -0.460664        1.000000        0.00110244        0.00033462        0.02536367        0.03057834
      73         -0.459418        1.000000        0.00317113        0.00034937        0.08377333        0.09340355
      74         -0.458458        1.000000        0.00010093        0.00076670        0.00382030        0.00622972
      75         -0.454139        1.000000        0.00174095        0.00797947        0.02247857        0.04142522
      76         -0.451577        1.000000        0.00689083        0.02530436        0.10445369        0.23859432
      77         -0.447662        1.000000        0.00002294        0.00034193        0.00014307        0.00124340
      78         -0.443151        1.000000        0.00001686        0.00139280        0.00381564        0.00763389
      79         -0.438487        1.000000        0.00000951        0.00116108        0.00038371        0.00156589
      80         -0.410725        1.000000        0.00000658        0.03831995        0.00002356        0.00077989
      81         -0.409899        1.000000        0.00000611        0.00028193        0.03371526        0.00025048
      82         -0.407698        1.000000        0.00000750        0.00033449        0.03852587        0.00045995
      83         -0.406289        1.000000        0.00000642        0.04389487        0.00044397        0.00045868
      84         -0.402421        1.000000        0.00001017        0.00378899        0.03863410        0.00088603
      85         -0.401817        1.000000        0.00000049        0.03290753        0.00104285        0.00007824
      86         -0.400759        1.000000        0.00001588        0.03325556        0.00481012        0.00245356
      87         -0.400111        1.000000        0.00001010        0.00580346        0.02184468        0.00893164
      88         -0.398917        1.000000        0.00001735        0.03934403        0.00041121        0.00036443
      89         -0.398310        1.000000        0.00000393        0.00094391        0.02584323        0.00764937
      90         -0.398196        1.000000        0.00001119        0.00201562        0.02155005        0.01260012
      91         -0.395468        1.000000        0.00001126        0.03698860        0.00055039        0.00192126
      92         -0.390098        1.000000        0.00000195        0.00963447        0.02337069        0.00579941
      93         -0.386841        1.000000        0.00000699        0.02695146        0.00292181        0.00949905
      94         -0.323849        1.000000        0.00026050        0.00149382        0.00026953        0.00036975
      95         -0.315952        1.000000        0.00005261        0.00007812        0.00005768        0.00001316
      96         -0.305510        1.000000        0.00003207        0.00003137        0.00009693        0.00001288
      97         -0.303277        1.000000        0.00006070        0.00008531        0.00017213        0.00002499
      98         -0.298800        1.000000        0.00011249        0.00001401        0.00050144        0.00010797
      99         -0.276492        1.000000        0.00041140        0.00159559        0.00022122        0.00043610
     100         -0.273732        1.000000        0.00118368        0.00194377        0.00122457        0.00111844
     101         -0.273066        1.000000        0.00134811        0.00336769        0.00021977        0.00116165
     102         -0.269512        1.000000        0.00024819        0.00031090        0.00023693        0.00011509
     103         -0.268426        1.000000        0.00035295        0.00024120        0.00027098        0.00016130
     104         -0.265560        1.000000        0.00031488        0.00024281        0.00018300        0.00014501
     105         -0.264931        1.000000        0.00024633        0.00136670        0.00027474        0.00035719
     106         -0.264691        1.000000        0.00030660        0.00071636        0.00126739        0.00011788
     107         -0.262923        1.000000        0.00011297        0.00006513        0.00046977        0.00020550
     108         -0.257322        1.000000        0.00021850        0.00128643        0.00054302        0.00060863
     109         -0.256895        1.000000        0.00046538        0.00130875        0.00039745        0.00058270
     110         -0.256131        1.000000        0.00030952        0.00025865        0.00032747        0.00029310
     111         -0.255740        1.000000        0.00026008        0.00012013        0.00038979        0.00013373
     112         -0.254158        1.000000        0.00024576        0.00046781        0.00014309        0.00021477
     113         -0.252575        1.000000        0.00058629        0.00059729        0.00042159        0.00031857
     114         -0.251754        1.000000        0.00072997        0.00162225        0.00009575        0.00055077
     115         -0.250358        1.000000        0.00041536        0.00067473        0.00055825        0.00034529
     116         -0.247144        1.000000        0.00016821        0.00036516        0.00042610        0.00019143
     117         -0.245542        1.000000        0.00038142        0.00033688        0.00032949        0.00026109
     118         -0.244403        1.000000        0.00015708        0.00084981        0.00021325        0.00012833
     119         -0.243421        1.000000        0.00021101        0.00060226        0.00020383        0.00018860
     120         -0.242997        1.000000        0.00039044        0.00082630        0.00037885        0.00036915
     121         -0.239911        1.000000        0.00036383        0.00032508        0.00026059        0.00032500
     122         -0.238444        1.000000        0.00015111        0.00116815        0.00208012        0.00015424
     123         -0.236608        1.000000        0.00066183        0.00034161        0.00176758        0.00031955
     124         -0.236013        1.000000        0.00039266        0.00051365        0.00083829        0.00007825
     125         -0.235207        1.000000        0.00099749        0.00012835        0.00047926        0.00058606
     126         -0.233913        1.000000        0.00141899        0.00056750        0.00206287        0.00084601
     127         -0.232357        1.000000        0.00019184        0.00060159        0.00059037        0.00011664
     128         -0.231974        1.000000        0.00065593        0.00101951        0.00011968        0.00036894
     129         -0.229303        1.000000        0.00083859        0.00035367        0.00224946        0.00028106
     130         -0.227525        1.000000        0.00051428        0.00065033        0.00091674        0.00047329
     131         -0.224407        1.000000        0.00324358        0.00590172        0.00103994        0.00195678
     132         -0.223099        1.000000        0.00095009        0.00026648        0.00053833        0.00036286
     133         -0.221927        1.000000        0.00198678        0.00176883        0.00092489        0.00124015
     134         -0.219921        1.000000        0.00051611        0.00031950        0.00043664        0.00019806
     135         -0.218616        1.000000        0.00070602        0.00100350        0.00243871        0.00024073
     136         -0.217955        1.000000        0.00067008        0.00124104        0.00055558        0.00038316
     137         -0.215980        1.000000        0.00094926        0.00032743        0.00158070        0.00046062
     138         -0.215282        1.000000        0.00281290        0.00270428        0.00303063        0.00116783
     139         -0.214268        1.000000        0.00072834        0.00128674        0.00088779        0.00023364
     140         -0.213956        1.000000        0.00144251        0.00438023        0.00121428        0.00085208
     141         -0.212336        1.000000        0.00140334        0.00067529        0.00516076        0.00027619
     142         -0.211675        1.000000        0.00191286        0.00457938        0.00224706        0.00029575
     143         -0.210759        1.000000        0.00043433        0.00074402        0.00116661        0.00034557
     144         -0.209501        1.000000        0.00031887        0.00152158        0.00056289        0.00026220
     145         -0.207904        1.000000        0.00143392        0.00174856        0.00060296        0.00083806
     146         -0.207805        1.000000        0.00020935        0.00053595        0.00046078        0.00003378
     147         -0.207349        1.000000        0.00058162        0.00183912        0.00102928        0.00072024
     148         -0.206403        1.000000        0.00170064        0.00671296        0.00109095        0.00111949
     149         -0.205587        1.000000        0.00034663        0.00624840        0.00045070        0.00060985
     150         -0.205023        1.000000        0.00113990        0.00329772        0.00080169        0.00083368
     151         -0.204515        1.000000        0.00026038        0.00176537        0.00064080        0.00024674
     152         -0.203629        1.000000        0.00045049        0.00280071        0.00037867        0.00094016
     153         -0.202297        1.000000        0.00102899        0.00188752        0.00046054        0.00058340
     154         -0.201945        1.000000        0.00068311        0.00201386        0.00072109        0.00099278
     155         -0.201719        1.000000        0.00061169        0.00413302        0.00029030        0.00047008
     156         -0.201037        1.000000        0.00029098        0.00193132        0.00011285        0.00032962
     157         -0.200342        1.000000        0.00031184        0.00203564        0.00023846        0.00082527
     158         -0.199338        1.000000        0.00029357        0.00062798        0.00039264        0.00053297
     159         -0.198120        1.000000        0.00062180        0.00235200        0.00065219        0.00179879
     160         -0.197881        1.000000        0.00139688        0.00123899        0.00087101        0.00243559
     161         -0.196969        1.000000        0.00037710        0.00057162        0.00074445        0.00013494
     162         -0.196420        1.000000        0.00034015        0.00049127        0.00100456        0.00018975
     163         -0.195978        1.000000        0.00085034        0.00320930        0.00172083        0.00049080
     164         -0.195766        1.000000        0.00059608        0.00337756        0.00132153        0.00048705
     165         -0.194940        1.000000        0.00168001        0.00480122        0.00179304        0.00057612
     166         -0.194230        1.000000        0.00017271        0.00089116        0.00121441        0.00023759
     167         -0.193669        1.000000        0.00065175        0.00121464        0.00332421        0.00088412
     168         -0.193260        1.000000        0.00050331        0.00205377        0.00058240        0.00028880
     169         -0.193008        1.000000        0.00010917        0.00062665        0.00093898        0.00028008
     170         -0.192643        1.000000        0.00015854        0.00102856        0.00041229        0.00009426
     171         -0.191575        1.000000        0.00129552        0.00569007        0.00237222        0.00123104
     172         -0.190366        1.000000        0.00056519        0.00225273        0.00038781        0.00024990
     173         -0.189998        1.000000        0.00222995        0.01032273        0.00122494        0.00161622
     174         -0.189711        1.000000        0.00004955        0.00016531        0.00025268        0.00014609
     175         -0.188942        1.000000        0.00067799        0.00622041        0.00008005        0.00007633
     176         -0.188649        1.000000        0.00028984        0.00206498        0.00070898        0.00029783
     177         -0.188060        1.000000        0.00012639        0.00068498        0.00041539        0.00012006
     178         -0.187648        1.000000        0.00010534        0.00118927        0.00011939        0.00019430
     179         -0.187377        1.000000        0.00002658        0.00012294        0.00002846        0.00002384
     180         -0.187074        1.000000        0.00016293        0.00115226        0.00036018        0.00009666
     181         -0.186116        1.000000        0.00004654        0.00050266        0.00012295        0.00002675
     182         -0.185475        1.000000        0.00008075        0.00020577        0.00020284        0.00032045
     183         -0.184652        1.000000        0.00082658        0.00320009        0.00041687        0.00056188
     184         -0.183390        1.000000        0.00039951        0.00130641        0.00024220        0.00020159
     185         -0.183103        1.000000        0.00025575        0.00052037        0.00025464        0.00004838
     186         -0.182342        1.000000        0.00018090        0.00075984        0.00027225        0.00004683
     187         -0.182066        1.000000        0.00011902        0.00050453        0.00003902        0.00002233
     188         -0.181584        1.000000        0.00023864        0.00096351        0.00020211        0.00005611
     189         -0.179809        1.000000        0.00003160        0.00017298        0.00002499        0.00007853
     190         -0.176110        1.000000        0.00004367        0.00017797        0.00003825        0.00035688
     191         -0.174276        1.000000        0.00001078        0.00014493        0.00006718        0.00002196
     192         -0.173452        1.000000        0.00006383        0.00013783        0.00004223        0.00002967
     193         -0.172084        1.000000        0.00008680        0.00018873        0.00011730        0.00010852
     194         -0.171324        1.000000        0.00000301        0.00001212        0.00000435        0.00000390
     195         -0.168816        0.000000        0.00002540        0.00010023        0.00002544        0.00002390
     196         -0.167304        0.000000        0.00000087        0.00000313        0.00003484        0.00000213
     197         -0.164425        0.000000        0.00006631        0.00014380        0.00001561        0.00004417
     198         -0.158484        0.000000        0.00003162        0.00010603        0.00003342        0.00002044
     199         -0.155454        0.000000        0.00002894        0.00022784        0.00007169        0.00009269
     200         -0.155031        0.000000        0.00001993        0.00011807        0.00005271        0.00001943
     201         -0.129174        0.000000        0.00000406        0.00000927        0.00000638        0.00000577
     202         -0.074049        0.000000        0.00032725        0.00015332        0.00030901        0.00000665
     203         -0.073755        0.000000        0.00003251        0.00000560        0.00004013        0.00001504
     204         -0.071854        0.000000        0.00007153        0.00008868        0.00024608        0.00004316
     205         -0.062687        0.000000        0.00056643        0.00033864        0.00038191        0.00003889
     206         -0.055404        0.000000        0.00009152        0.00006001        0.00020315        0.00008204
     207         -0.052775        0.000000        0.00005398        0.00010088        0.00003607        0.00002790
     208         -0.049416        0.000000        0.00011907        0.00002871        0.00012955        0.00002139
     209         -0.045620        0.000000        0.00006445        0.00002433        0.00004753        0.00011487
     210         -0.040740        0.000000        0.00012657        0.00002838        0.00010067        0.00002066
     211         -0.040492        0.000000        0.00005836        0.00002595        0.00007612        0.00000615
     212         -0.038395        0.000000        0.00015305        0.00035131        0.00014004        0.00007633
     213         -0.034583        0.000000        0.00003277        0.00014315        0.00007371        0.00003134
     214         -0.033636        0.000000        0.00017051        0.00014618        0.00001542        0.00000918
     215         -0.030204        0.000000        0.00012680        0.00021768        0.00031428        0.00003318
     216         -0.026360        0.000000        0.00008430        0.00026877        0.00015165        0.00004056
     217         -0.023999        0.000000        0.00004333        0.00002513        0.00003713        0.00002903
     218         -0.022549        0.000000        0.00023831        0.00064803        0.00021598        0.00004000
     219         -0.018004        0.000000        0.00004764        0.00004083        0.00004584        0.00003083
     220         -0.017859        0.000000        0.00007657        0.00006447        0.00004011        0.00004210
     221         -0.017676        0.000000        0.00003633        0.00011847        0.00004056        0.00001667
     222         -0.014839        0.000000        0.00027322        0.00048463        0.00009356        0.00003393
     223         -0.013976        0.000000        0.00009259        0.00019309        0.00009065        0.00000751
     224         -0.011665        0.000000        0.00015514        0.00001162        0.00014867        0.00012347
     225         -0.005076        0.000000        0.00035884        0.00073539        0.00007562        0.00005771
     226          0.088308        0.000000        0.09809307        0.00058328        0.00087816        0.26047899
     227          0.098888        0.000000        0.09804086        0.00649352        0.05650510        0.19562672
     228          0.102781        0.000000        0.10460145        0.00152555        0.00283405        0.25567423
     229          0.103763        0.000000        0.10436574        0.00016194        0.07542417        0.17973743
     230          0.103953        0.000000        0.10421336        0.00179094        0.00326956        0.25591408
     231          0.109000        0.000000        0.10277124        0.00205122        0.12060871        0.13530539
     232          0.115318        0.000000        0.10183012        0.01857143        0.07584545        0.16753277
     233          0.283729        0.000000        0.00286284        0.30913181        0.00438797        0.00018342
     234          0.284819        0.000000        0.00000387        0.00540123        0.32482472        0.00128070
     235          0.286039        0.000000        0.00013215        0.27443294        0.03381720        0.00361442
     236          0.290041        0.000000        0.00330941        0.30013453        0.02622406        0.00060780
     237          0.293168        0.000000        0.00233455        0.02436450        0.22677763        0.07940664
     238          0.294704        0.000000        0.00418265        0.18364062        0.09725765        0.02504688
     239          0.295023        0.000000        0.00123380        0.09014739        0.17359580        0.05006878
     240          0.295167        0.000000        0.00148381        0.25675140        0.04571047        0.00654200
     241          0.296596        0.000000        0.00415921        0.03085446        0.12427643        0.16781415
     242          0.298059        0.000000        0.00168605        0.02891588        0.29024992        0.00325841
     243          0.300357        0.000000        0.00014766        0.27706749        0.02759277        0.01078126
     244          0.301918        0.000000        0.01014210        0.07626465        0.24399623        0.00104109
     245          0.307555        0.000000        0.00062423        0.15036814        0.07743102        0.08786643
     246          0.311193        0.000000        0.00019882        0.14167201        0.15996506        0.01828447
     247          0.316562        0.000000        0.24646332        0.00060102        0.00051675        0.09404778
     248          0.327639        0.000000        0.24578878        0.00030420        0.01611280        0.08407365
     249          0.336288        0.000000        0.23992965        0.00050500        0.02169064        0.08410966
     250          0.337493        0.000000        0.23901957        0.00171927        0.00832466        0.09701934
     251          0.337677        0.000000        0.23956049        0.00111756        0.05547793        0.04658957
     252          0.344756        0.000000        0.22788922        0.01372344        0.00092842        0.09417193
     253          0.349265        0.000000        0.24375762        0.00454118        0.02511921        0.07166588
     254          0.454596        0.000000        0.00000020        0.00580002        0.01716838        0.00016878
     255          0.459542        0.000000        0.00000342        0.01527353        0.00527878        0.00001383
     256          0.462974        0.000000        0.00004926        0.02285393        0.00138941        0.00015468
     257          0.464494        0.000000        0.00000641        0.00085450        0.02524724        0.00021622
     258          0.466161        0.000000        0.00004534        0.02268487        0.00048796        0.00020780
     259          0.467274        0.000000        0.00001469        0.00153460        0.02365846        0.00045042