# Projected DOS for atomic kind Pb at iteration step i = 0, E(Fermi) =    -0.172077 a.u.
#     MO Eigenvalue [a.u.]      Occupation                 s                py                pz                px
       1         -0.952918        1.000000        0.00000006        0.00000013        0.00000074        0.00000009
       2         -0.945306        1.000000        0.00000041        0.00000303        0.00000698        0.00000353
       3         -0.942427        1.000000        0.00000021        0.00000088        0.00000128        0.00000056
       4         -0.940424        1.000000        0.00000063        0.00000725        0.00000575        0.00000603
       5         -0.936657        1.000000        0.00000063        0.00000659        0.00000722        0.00000364
       6         -0.936356        1.000000        0.00000047        0.00000255        0.00000351        0.00000487
       7         -0.926082        1.000000        0.00000116        0.00001520        0.00001021        0.00000968
       8         -0.693813        1.000000        0.00000321        0.00000211        0.00000538        0.00000016
       9         -0.690003        1.000000        0.00001608        0.00001377        0.00001450        0.00000797
      10         -0.684866        1.000000        0.00003327        0.00002295        0.00003226        0.00001149
      11         -0.683701        1.000000        0.00002430        0.00002991        0.00003801        0.00002333
      12         -0.683459        1.000000        0.00008481        0.00008381        0.00004666        0.00006171
      13         -0.680384        1.000000        0.00004101        0.00003748        0.00005461        0.00003597
      14         -0.671848        1.000000        0.00006852        0.00005107        0.00004000        0.00001953
      15         -0.640367        1.000000        0.00171104        0.00027921        0.00206615        0.00047821
      16         -0.631081        1.000000        0.01278588        0.00034484        0.00628118        0.00080888
      17         -0.622812        1.000000        0.02272312        0.00745956        0.00040805        0.00843863
      18         -0.619688        1.000000        0.00153523        0.00563979        0.00005270        0.00010567
      19         -0.615429        1.000000        0.03865335        0.01114825        0.00069643        0.00074581
      20         -0.603536        1.000000        0.04518523        0.00223432        0.00334445        0.00843520
      21         -0.597807        1.000000        0.11713260        0.00803158        0.00042032        0.00131444
      22         -0.594685        1.000000        0.10255869        0.00345437        0.00126985        0.01323424
      23         -0.594373        1.000000        0.09322780        0.00373837        0.00133852        0.00995245
      24         -0.593210        1.000000        0.07970252        0.00446813        0.00170156        0.01254848
      25         -0.591257        1.000000        0.02289720        0.01175932        0.00085727        0.00408550
      26         -0.588247        1.000000        0.02391798        0.00512030        0.00479910        0.00380224
      27         -0.587614        1.000000        0.06004709        0.00485626        0.00297454        0.00286216
      28         -0.586131        1.000000        0.04343365        0.00478106        0.00130151        0.01296413
      29         -0.583927        1.000000        0.03158814        0.02147235        0.00091569        0.00326092
      30         -0.583168        1.000000        0.00555587        0.00144917        0.00398671        0.00326864
      31         -0.582586        1.000000        0.02692215        0.00698914        0.00702774        0.00725123
      32         -0.582337        1.000000        0.00870007        0.00641032        0.00154592        0.00151057
      33         -0.580369        1.000000        0.02183779        0.00362497        0.02485972        0.00489611
      34         -0.580076        1.000000        0.01763038        0.00534865        0.02522797        0.00347763
      35         -0.578440        1.000000        0.01304765        0.00833542        0.00395248        0.00213768
      36         -0.577987        1.000000        0.02851746        0.00765788        0.00882739        0.00919277
      37         -0.577675        1.000000        0.00514063        0.00571339        0.00199920        0.00156890
      38         -0.576144        1.000000        0.00922254        0.00539871        0.01525867        0.00550486
      39         -0.575209        1.000000        0.02824586        0.00560977        0.02280712        0.00372688
      40         -0.574827        1.000000        0.00386272        0.01902819        0.01174938        0.00446398
      41         -0.574316        1.000000        0.01454391        0.00253581        0.01790241        0.00352810
      42         -0.573214        1.000000        0.00214206        0.00650834        0.00149419        0.01201900
      43         -0.572806        1.000000        0.00023911        0.01474371        0.02573873        0.00647006
      44         -0.571373        1.000000        0.00212028        0.01825722        0.00525666        0.00358180
      45         -0.570790        1.000000        0.07723695        0.00681196        0.01160718        0.00278361
      46         -0.570480        1.000000        0.01063902        0.00177048        0.01091767        0.00250235
      47         -0.569812        1.000000        0.04258629        0.00606874        0.01622569        0.00303505
      48         -0.568011        1.000000        0.00108871        0.00075971        0.00125221        0.00081948
      49         -0.566927        1.000000        0.01381392        0.00061251        0.01223963        0.02558295
      50         -0.564172        1.000000        0.00081377        0.00280124        0.00158068        0.00672126
      51         -0.562723        1.000000        0.00594509        0.00154343        0.00231401        0.00017515
      52         -0.561038        1.000000        0.00377174        0.02034841        0.01624966        0.00036916
      53         -0.560386        1.000000        0.00637755        0.00984156        0.00558184        0.00038868
      54         -0.559964        1.000000        0.00713047        0.00701057        0.00191049        0.00046429
      55         -0.559374        1.000000        0.00089803        0.00226705        0.00258755        0.00130961
      56         -0.557587        1.000000        0.00492795        0.00024452        0.00170245        0.00570216
      57         -0.556621        1.000000        0.00091852        0.00731100        0.00443662        0.00089735
      58         -0.554431        1.000000        0.02719981        0.02344982        0.00197887        0.00045159
      59         -0.551156        1.000000        0.02611207        0.00290370        0.00061432        0.00062520
      60         -0.545922        1.000000        0.00288509        0.00096914        0.00644823        0.00021360
      61         -0.544889        1.000000        0.01168603        0.00239066        0.00396956        0.00694512
      62         -0.541933        1.000000        0.00195956        0.00011897        0.01353841        0.00449465
      63         -0.538446        1.000000        0.00038690        0.00448315        0.00137128        0.00016499
      64         -0.538038        1.000000        0.00902791        0.00114990        0.00759822        0.00016697
      65         -0.473953        1.000000        0.00277357        0.00002435        0.00010052        0.00001030
      66         -0.469955        1.000000        0.01218903        0.00005717        0.00009673        0.00004526
      67         -0.465112        1.000000        0.57276974        0.00008344        0.00180278        0.00013328
      68         -0.464751        1.000000        0.15879944        0.00005415        0.00030723        0.00004293
      69         -0.464189        1.000000        0.06745388        0.00017716        0.00009926        0.00003208
      70         -0.463812        1.000000        0.01178172        0.00003902        0.00003175        0.00003196
      71         -0.461699        1.000000        0.32174671        0.00041708        0.00028729        0.00024824
      72         -0.460868        1.000000        0.58796074        0.00093462        0.00052104        0.00063200
      73         -0.459448        1.000000        0.39451588        0.00045644        0.00022385        0.00033172
      74         -0.458486        1.000000        0.73877817        0.00001645        0.00118039        0.00013667
      75         -0.454240        1.000000        0.59674318        0.00094395        0.00052065        0.00069185
      76         -0.451606        1.000000        0.11030549        0.00013014        0.00015137        0.00023484
      77         -0.450241        1.000000        0.71491831        0.00166221        0.00098100        0.00072197
      78         -0.443153        1.000000        0.70988880        0.00044364        0.00039099        0.00043926
      79         -0.439584        1.000000        0.75001943        0.00047893        0.00022736        0.00078621
      80         -0.410743        1.000000        0.00053683        0.00000285        0.00008005        0.00000615
      81         -0.409901        1.000000        0.00005535        0.00001038        0.00000932        0.00000219
      82         -0.407698        1.000000        0.00071149        0.00007864        0.00001394        0.00009557
      83         -0.406292        1.000000        0.00117630        0.00004863        0.00007392        0.00010756
      84         -0.402421        1.000000        0.00034154        0.00015394        0.00024528        0.00004022
      85         -0.401821        1.000000        0.00026969        0.00008715        0.00015066        0.00001446
      86         -0.400759        1.000000        0.00013078        0.00004379        0.00008748        0.00004829
      87         -0.400112        1.000000        0.00040724        0.00020337        0.00004295        0.00009552
      88         -0.398917        1.000000        0.00093862        0.00043092        0.00028207        0.00020640
      89         -0.398313        1.000000        0.00046292        0.00015800        0.00015777        0.00008804
      90         -0.398197        1.000000        0.00055399        0.00013313        0.00012442        0.00014200
      91         -0.395468        1.000000        0.00087965        0.00005569        0.00027793        0.00026587
      92         -0.390099        1.000000        0.00006614        0.00001286        0.00003578        0.00001045
      93         -0.386858        1.000000        0.00017288        0.00005442        0.00014314        0.00003536
      94         -0.323843        1.000000        0.00592823        0.00689488        0.00791649        0.00204554
      95         -0.315921        1.000000        0.00416387        0.02314876        0.05187567        0.01789479
      96         -0.305522        1.000000        0.00104079        0.00851631        0.00863571        0.00270677
      97         -0.303267        1.000000        0.00924364        0.05931201        0.00820222        0.01636079
      98         -0.299335        1.000000        0.00541929        0.10440096        0.00525742        0.02770733
      99         -0.276640        1.000000        0.00605907        0.08814885        0.08215062        0.03581472
     100         -0.273909        1.000000        0.00407464        0.11969568        0.04891670        0.02736640
     101         -0.273376        1.000000        0.00563623        0.05305734        0.03723515        0.02851123
     102         -0.269729        1.000000        0.00231923        0.07170262        0.08783642        0.08277839
     103         -0.268748        1.000000        0.00217720        0.08673649        0.06743676        0.01987448
     104         -0.266653        1.000000        0.00428076        0.05637607        0.09946415        0.05158305
     105         -0.265242        1.000000        0.00220550        0.04585150        0.02647928        0.10670196
     106         -0.264939        1.000000        0.00092697        0.01681340        0.04320901        0.18488485
     107         -0.263329        1.000000        0.00130097        0.06392956        0.08425267        0.07113430
     108         -0.260754        1.000000        0.00116034        0.02494823        0.13451945        0.04051487
     109         -0.257656        1.000000        0.00191735        0.06720141        0.07691758        0.05352038
     110         -0.256438        1.000000        0.00043975        0.12266375        0.04162621        0.06718911
     111         -0.256062        1.000000        0.00056029        0.06607453        0.09972743        0.04731961
     112         -0.254499        1.000000        0.00023549        0.03909014        0.09874548        0.05244126
     113         -0.253895        1.000000        0.00171525        0.05836954        0.06896610        0.05431644
     114         -0.252564        1.000000        0.00084394        0.04410857        0.01959992        0.01446540
     115         -0.251026        1.000000        0.00132393        0.03292284        0.12097150        0.03905050
     116         -0.247308        1.000000        0.00417916        0.03799417        0.10021327        0.02205812
     117         -0.245709        1.000000        0.00834699        0.03562934        0.03205168        0.03507732
     118         -0.244702        1.000000        0.00093779        0.04948240        0.06191040        0.04768616
     119         -0.244476        1.000000        0.00285692        0.05712987        0.02354796        0.07726926
     120         -0.243351        1.000000        0.00779781        0.05883019        0.04944837        0.10298136
     121         -0.240288        1.000000        0.00462952        0.05352727        0.07141032        0.02667648
     122         -0.239086        1.000000        0.00068327        0.01026270        0.02660162        0.00887227
     123         -0.237191        1.000000        0.00434993        0.03504315        0.01135427        0.05267470
     124         -0.236270        1.000000        0.00736145        0.04302065        0.02347874        0.06181422
     125         -0.235699        1.000000        0.00071200        0.05108346        0.04063384        0.01397641
     126         -0.234113        1.000000        0.00514357        0.03395047        0.03653173        0.05990367
     127         -0.233478        1.000000        0.00278370        0.02696297        0.02847202        0.07904621
     128         -0.232405        1.000000        0.00688777        0.01349626        0.05233391        0.02066863
     129         -0.229411        1.000000        0.00279133        0.01536963        0.00402930        0.01310574
     130         -0.227763        1.000000        0.00619047        0.03354538        0.01682503        0.03148344
     131         -0.225413        1.000000        0.00676389        0.01711896        0.01410824        0.01541401
     132         -0.224052        1.000000        0.00381605        0.00929819        0.00546937        0.00631616
     133         -0.222361        1.000000        0.00616950        0.00712016        0.03678318        0.01912081
     134         -0.220691        1.000000        0.01186417        0.02372450        0.00443939        0.02592824
     135         -0.219020        1.000000        0.01156227        0.01994996        0.00751351        0.01582184
     136         -0.218327        1.000000        0.00549984        0.01170437        0.01405148        0.01072735
     137         -0.216233        1.000000        0.00930599        0.01775878        0.00970644        0.01527250
     138         -0.215483        1.000000        0.00862360        0.01697219        0.01753203        0.00552330
     139         -0.214606        1.000000        0.00316398        0.00401006        0.00622796        0.00325289
     140         -0.214369        1.000000        0.00198413        0.00231090        0.00380306        0.00408627
     141         -0.213409        1.000000        0.01042739        0.01397385        0.01519811        0.00729756
     142         -0.211776        1.000000        0.00185137        0.00486591        0.00131937        0.00442954
     143         -0.211151        1.000000        0.00271702        0.00689320        0.00285068        0.00407160
     144         -0.210146        1.000000        0.00551257        0.00550684        0.00688497        0.00514629
     145         -0.208580        1.000000        0.00559914        0.01140878        0.00432452        0.00329367
     146         -0.208428        1.000000        0.01423345        0.00657416        0.00555111        0.01195850
     147         -0.207772        1.000000        0.00176929        0.00423977        0.00119187        0.00609979
     148         -0.207418        1.000000        0.00376268        0.00433053        0.00190777        0.00252132
     149         -0.205794        1.000000        0.00308804        0.00203324        0.00273852        0.00722616
     150         -0.205456        1.000000        0.00774839        0.00575435        0.00367106        0.00554675
     151         -0.205045        1.000000        0.00365189        0.00401676        0.00208395        0.00954155
     152         -0.203876        1.000000        0.00652392        0.00785205        0.00351482        0.00751150
     153         -0.203271        1.000000        0.01317676        0.00914676        0.00783127        0.02021427
     154         -0.202406        1.000000        0.00719812        0.00180633        0.00203864        0.00381187
     155         -0.201918        1.000000        0.00294468        0.00231613        0.00302802        0.00612776
     156         -0.201170        1.000000        0.01116017        0.01022788        0.00431228        0.01399459
     157         -0.200653        1.000000        0.00515776        0.00475801        0.00307486        0.00221396
     158         -0.199566        1.000000        0.01059653        0.00477269        0.00225733        0.01244997
     159         -0.198541        1.000000        0.00776518        0.00253714        0.00266314        0.00757140
     160         -0.197965        1.000000        0.00210212        0.00189654        0.00160497        0.00278304
     161         -0.197009        1.000000        0.00328014        0.00277859        0.00102111        0.00487294
     162         -0.196589        1.000000        0.01035879        0.00175510        0.00228363        0.00360468
     163         -0.196294        1.000000        0.00426840        0.00087745        0.00114769        0.00586672
     164         -0.195928        1.000000        0.00787669        0.00235211        0.00180663        0.00588706
     165         -0.195080        1.000000        0.00132289        0.00094943        0.00069369        0.00227497
     166         -0.194735        1.000000        0.00758655        0.00252975        0.00165469        0.00509397
     167         -0.193768        1.000000        0.00935377        0.00379140        0.00272704        0.00220629
     168         -0.193492        1.000000        0.01102034        0.00064036        0.00265767        0.00309517
     169         -0.193362        1.000000        0.00333398        0.00043117        0.00093959        0.00054239
     170         -0.192850        1.000000        0.00781496        0.00151776        0.00277479        0.00194652
     171         -0.191806        1.000000        0.00472910        0.00189757        0.00267388        0.00169510
     172         -0.191160        1.000000        0.00173344        0.00259811        0.00040129        0.00673836
     173         -0.190214        1.000000        0.00302992        0.00504991        0.00229868        0.00557314
     174         -0.190079        1.000000        0.00442017        0.00151587        0.00064204        0.00317600
     175         -0.189442        1.000000        0.00281961        0.00081003        0.00241820        0.00349434
     176         -0.188828        1.000000        0.00721680        0.00207401        0.00119842        0.00402058
     177         -0.188175        1.000000        0.00397292        0.00126493        0.00066457        0.00212577
     178         -0.187748        1.000000        0.00583802        0.00238420        0.00143599        0.00473039
     179         -0.187689        1.000000        0.00312615        0.00088155        0.00084676        0.00173680
     180         -0.187342        1.000000        0.00283984        0.00151056        0.00036364        0.00017102
     181         -0.186849        1.000000        0.00663998        0.00237276        0.00264625        0.00303201
     182         -0.186471        1.000000        0.00479113        0.00109210        0.00131361        0.00412075
     183         -0.186117        1.000000        0.00222771        0.00056764        0.00124918        0.00082686
     184         -0.184686        1.000000        0.00090512        0.00092738        0.00033092        0.00090944
     185         -0.184078        1.000000        0.00634546        0.00214652        0.00054538        0.00685342
     186         -0.183198        1.000000        0.01706844        0.00273689        0.00280216        0.00299479
     187         -0.182472        1.000000        0.01293013        0.00215787        0.00088023        0.00351160
     188         -0.182396        1.000000        0.00103444        0.00015608        0.00024031        0.00211761
     189         -0.181912        1.000000        0.01373298        0.00319588        0.00078230        0.00656911
     190         -0.178393        1.000000        0.00086935        0.00081786        0.00011428        0.00010989
     191         -0.176335        1.000000        0.04343563        0.00824026        0.00149226        0.00398015
     192         -0.174275        1.000000        0.00146973        0.00055906        0.00017855        0.00049743
     193         -0.174210        1.000000        0.00225748        0.00010013        0.00130477        0.00003565
     194         -0.172599        1.000000        0.07696064        0.01010866        0.00232757        0.00422107
     195         -0.172077        1.000000        0.08730894        0.01027778        0.00356755        0.00592432
     196         -0.168826        0.000000        0.11760051        0.00367230        0.00336731        0.00339003
     197         -0.167272        0.000000        0.05114077        0.00077142        0.00194984        0.00954468
     198         -0.160679        0.000000        0.09031341        0.00141168        0.00074491        0.00449218
     199         -0.155514        0.000000        0.00862157        0.01483086        0.00710173        0.00992758
     200         -0.155092        0.000000        0.05812398        0.00515103        0.00123484        0.00140273
     201         -0.129183        0.000000        0.00008409        0.00015179        0.00006801        0.00012984
     202         -0.074147        0.000000        0.00598645        0.14730555        0.09365589        0.49116941
     203         -0.073773        0.000000        0.00019120        0.06025533        0.01008783        0.66432761
     204         -0.072840        0.000000        0.00130890        0.06574215        0.09509437        0.61214642
     205         -0.062706        0.000000        0.00617018        0.21736197        0.13794152        0.36022479
     206         -0.055849        0.000000        0.01185749        0.15023294        0.08623086        0.47416011
     207         -0.052998        0.000000        0.00481885        0.06007875        0.03907917        0.59685285
     208         -0.049523        0.000000        0.00190804        0.38580756        0.05098122        0.26947853
     209         -0.046686        0.000000        0.00426578        0.16720030        0.14659487        0.38849247
     210         -0.040753        0.000000        0.00287016        0.55171628        0.08043525        0.05211292
     211         -0.040502        0.000000        0.00467211        0.11548662        0.55313702        0.01820814
     212         -0.038561        0.000000        0.00533131        0.09548114        0.29096961        0.29819422
     213         -0.034739        0.000000        0.00317103        0.10467612        0.46100653        0.11719076
     214         -0.033647        0.000000        0.00158293        0.22299026        0.42953051        0.02597724
     215         -0.030606        0.000000        0.00523160        0.28605303        0.33938932        0.06288447
     216         -0.026412        0.000000        0.00064801        0.28265557        0.15841713        0.23808851
     217         -0.024009        0.000000        0.00221319        0.05266548        0.59242363        0.01937149
     218         -0.022599        0.000000        0.00130954        0.39604182        0.19647356        0.09149201
     219         -0.020635        0.000000        0.00209654        0.54063452        0.12595766        0.02519097
     220         -0.017987        0.000000        0.00040495        0.24673190        0.09183098        0.33930871
     221         -0.017747        0.000000        0.00031540        0.20314312        0.10540345        0.36801181
     222         -0.014872        0.000000        0.00023852        0.08640774        0.55237791        0.04478112
     223         -0.014478        0.000000        0.00069081        0.42371375        0.23348904        0.02432772
     224         -0.011897        0.000000        0.00030106        0.56379153        0.02776841        0.07349687
     225         -0.008741        0.000000        0.00014527        0.07827258        0.59807323        0.01112023
     226          0.088305        0.000000        0.00000080        0.00003718        0.00007439        0.00001593
     227          0.098884        0.000000        0.00000187        0.00020538        0.00005951        0.00001347
     228          0.102780        0.000000        0.00000975        0.00015952        0.00003946        0.00005420
     229          0.103763        0.000000        0.00000449        0.00051360        0.00015731        0.00007655
     230          0.103953        0.000000        0.00000047        0.00007421        0.00003271        0.00001421
     231          0.109000        0.000000        0.00000657        0.00008514        0.00007090        0.00017496
     232          0.115318        0.000000        0.00000097        0.00005879        0.00008930        0.00001735
     233          0.283665        0.000000        0.00001483        0.00012115        0.00030543        0.00000311
     234          0.284817        0.000000        0.00000555        0.00009384        0.00004502        0.00000607
     235          0.286037        0.000000        0.00000636        0.00005489        0.00022976        0.00000890
     236          0.290041        0.000000        0.00000524        0.00003235        0.00001931        0.00000052
     237          0.293168        0.000000        0.00000089        0.00004247        0.00005111        0.00012508
     238          0.294703        0.000000        0.00001263        0.00033499        0.00005128        0.00002906
     239          0.295023        0.000000        0.00000688        0.00014874        0.00007207        0.00002151
     240          0.295166        0.000000        0.00000587        0.00006824        0.00015473        0.00006519
     241          0.296596        0.000000        0.00000548        0.00006952        0.00002837        0.00006186
     242          0.298058        0.000000        0.00003577        0.00020099        0.00007194        0.00006972
     243          0.300357        0.000000        0.00000374        0.00007607        0.00002792        0.00013715
     244          0.301918        0.000000        0.00000368        0.00002138        0.00003315        0.00003638
     245          0.307553        0.000000        0.00000177        0.00003519        0.00007173        0.00003622
     246          0.311190        0.000000        0.00000312        0.00003424        0.00003257        0.00002232
     247          0.316485        0.000000        0.00001875        0.00012626        0.00030226        0.00001434
     248          0.327639        0.000000        0.00000364        0.00008537        0.00001153        0.00001169
     249          0.336288        0.000000        0.00002402        0.00016415        0.00013331        0.00016837
     250          0.337491        0.000000        0.00002242        0.00008404        0.00012487        0.00005757
     251          0.337677        0.000000        0.00000511        0.00003664        0.00002431        0.00025659
     252          0.344754        0.000000        0.00000985        0.00008280        0.00007184        0.00004024
     253          0.349259        0.000000        0.00000434        0.00003328        0.00010366        0.00002476
     254          0.454596        0.000000        0.00000021        0.00000283        0.00000117        0.00000035
     255          0.459539        0.000000        0.00000057        0.00000591        0.00001179        0.00000090
     256          0.462974        0.000000        0.00000043        0.00000681        0.00001218        0.00000472
     257          0.464494        0.000000        0.00000471        0.00000585        0.00001051        0.00003326
     258          0.466160        0.000000        0.00000210        0.00000826        0.00000899        0.00001171
     259          0.467274        0.000000        0.00000051        0.00000845        0.00008809        0.00001778