# Projected DOS for atomic kind H at iteration step i = 0, E(Fermi) =    -0.171324 a.u.
#     MO Eigenvalue [a.u.]      Occupation                 s
       1         -0.952921        1.000000        0.28164880
       2         -0.945306        1.000000        0.28346046
       3         -0.942426        1.000000        0.28037363
       4         -0.940424        1.000000        0.28246483
       5         -0.936657        1.000000        0.27978739
       6         -0.936356        1.000000        0.28130534
       7         -0.926083        1.000000        0.28053881
       8         -0.693810        1.000000        0.34285663
       9         -0.690003        1.000000        0.34834184
      10         -0.684865        1.000000        0.34845464
      11         -0.683700        1.000000        0.34081624
      12         -0.683458        1.000000        0.34387095
      13         -0.680384        1.000000        0.34522092
      14         -0.671847        1.000000        0.34655250
      15         -0.640367        1.000000        0.00807842
      16         -0.631104        1.000000        0.00157411
      17         -0.622824        1.000000        0.00079173
      18         -0.619653        1.000000        0.00266362
      19         -0.614886        1.000000        0.00705499
      20         -0.603481        1.000000        0.01525259
      21         -0.597755        1.000000        0.01969548
      22         -0.594224        1.000000        0.00908256
      23         -0.594030        1.000000        0.00992863
      24         -0.592276        1.000000        0.01894659
      25         -0.591212        1.000000        0.06905445
      26         -0.587664        1.000000        0.01602856
      27         -0.586485        1.000000        0.07543796
      28         -0.585401        1.000000        0.10150719
      29         -0.583846        1.000000        0.01517360
      30         -0.582997        1.000000        0.06117849
      31         -0.582420        1.000000        0.06708779
      32         -0.582208        1.000000        0.05023925
      33         -0.580324        1.000000        0.03109981
      34         -0.580057        1.000000        0.03805807
      35         -0.577897        1.000000        0.06763647
      36         -0.577824        1.000000        0.24364253
      37         -0.576943        1.000000        0.06646281
      38         -0.575892        1.000000        0.07363654
      39         -0.574955        1.000000        0.03460573
      40         -0.574744        1.000000        0.04494075
      41         -0.574171        1.000000        0.06739870
      42         -0.573190        1.000000        0.14411760
      43         -0.572514        1.000000        0.00861470
      44         -0.571375        1.000000        0.00198280
      45         -0.570494        1.000000        0.17974097
      46         -0.569629        1.000000        0.07924849
      47         -0.568007        1.000000        0.27984597
      48         -0.567088        1.000000        0.04914109
      49         -0.565591        1.000000        0.02148679
      50         -0.564140        1.000000        0.22882703
      51         -0.562719        1.000000        0.28618316
      52         -0.560392        1.000000        0.18335982
      53         -0.559963        1.000000        0.23676740
      54         -0.559468        1.000000        0.01919301
      55         -0.557586        1.000000        0.25693306
      56         -0.554222        1.000000        0.08116611
      57         -0.553683        1.000000        0.05323202
      58         -0.552344        1.000000        0.06515172
      59         -0.551138        1.000000        0.23646522
      60         -0.545806        1.000000        0.25548222
      61         -0.544886        1.000000        0.18973283
      62         -0.541934        1.000000        0.15062047
      63         -0.538424        1.000000        0.18369207
      64         -0.537831        1.000000        0.22959777
      65         -0.473928        1.000000        0.17610010
      66         -0.469954        1.000000        0.17313745
      67         -0.465117        1.000000        0.03662266
      68         -0.464752        1.000000        0.14048820
      69         -0.464187        1.000000        0.16273579
      70         -0.463805        1.000000        0.17696439
      71         -0.461691        1.000000        0.09898093
      72         -0.460664        1.000000        0.02317557
      73         -0.459418        1.000000        0.07115035
      74         -0.458458        1.000000        0.00473139
      75         -0.454139        1.000000        0.03002785
      76         -0.451577        1.000000        0.14737070
      77         -0.447662        1.000000        0.00092180
      78         -0.443151        1.000000        0.00420877
      79         -0.438487        1.000000        0.00163589
      80         -0.410725        1.000000        0.42172555
      81         -0.409899        1.000000        0.42056430
      82         -0.407698        1.000000        0.42237148
      83         -0.406289        1.000000        0.42135773
      84         -0.402421        1.000000        0.42375468
      85         -0.401817        1.000000        0.42213215
      86         -0.400759        1.000000        0.42096566
      87         -0.400111        1.000000        0.42186771
      88         -0.398917        1.000000        0.41957022
      89         -0.398310        1.000000        0.41775556
      90         -0.398196        1.000000        0.42093359
      91         -0.395468        1.000000        0.41973099
      92         -0.390098        1.000000        0.42458884
      93         -0.386841        1.000000        0.42034043
      94         -0.323849        1.000000        0.00065323
      95         -0.315952        1.000000        0.00011971
      96         -0.305510        1.000000        0.00041016
      97         -0.303277        1.000000        0.00012492
      98         -0.298800        1.000000        0.00018970
      99         -0.276492        1.000000        0.00046292
     100         -0.273732        1.000000        0.00097673
     101         -0.273066        1.000000        0.00133923
     102         -0.269512        1.000000        0.00041774
     103         -0.268426        1.000000        0.00046868
     104         -0.265560        1.000000        0.00058569
     105         -0.264931        1.000000        0.00055392
     106         -0.264691        1.000000        0.00049143
     107         -0.262923        1.000000        0.00047614
     108         -0.257322        1.000000        0.00036953
     109         -0.256895        1.000000        0.00044532
     110         -0.256131        1.000000        0.00049234
     111         -0.255740        1.000000        0.00050602
     112         -0.254158        1.000000        0.00066426
     113         -0.252575        1.000000        0.00084912
     114         -0.251754        1.000000        0.00078411
     115         -0.250358        1.000000        0.00042100
     116         -0.247144        1.000000        0.00045113
     117         -0.245542        1.000000        0.00062938
     118         -0.244403        1.000000        0.00049993
     119         -0.243421        1.000000        0.00063483
     120         -0.242997        1.000000        0.00036245
     121         -0.239911        1.000000        0.00052707
     122         -0.238444        1.000000        0.00032744
     123         -0.236608        1.000000        0.00082673
     124         -0.236013        1.000000        0.00058015
     125         -0.235207        1.000000        0.00063115
     126         -0.233913        1.000000        0.00124871
     127         -0.232357        1.000000        0.00088629
     128         -0.231974        1.000000        0.00050044
     129         -0.229303        1.000000        0.00121067
     130         -0.227525        1.000000        0.00072474
     131         -0.224407        1.000000        0.00268475
     132         -0.223099        1.000000        0.00075921
     133         -0.221927        1.000000        0.00135939
     134         -0.219921        1.000000        0.00052278
     135         -0.218616        1.000000        0.00102732
     136         -0.217955        1.000000        0.00069622
     137         -0.215980        1.000000        0.00075548
     138         -0.215282        1.000000        0.00248237
     139         -0.214268        1.000000        0.00103416
     140         -0.213956        1.000000        0.00173749
     141         -0.212336        1.000000        0.00178074
     142         -0.211675        1.000000        0.00193544
     143         -0.210759        1.000000        0.00103831
     144         -0.209501        1.000000        0.00072923
     145         -0.207904        1.000000        0.00131879
     146         -0.207805        1.000000        0.00054692
     147         -0.207349        1.000000        0.00093831
     148         -0.206403        1.000000        0.00246588
     149         -0.205587        1.000000        0.00127013
     150         -0.205023        1.000000        0.00155477
     151         -0.204515        1.000000        0.00064256
     152         -0.203629        1.000000        0.00081448
     153         -0.202297        1.000000        0.00128660
     154         -0.201945        1.000000        0.00116765
     155         -0.201719        1.000000        0.00129676
     156         -0.201037        1.000000        0.00051086
     157         -0.200342        1.000000        0.00067379
     158         -0.199338        1.000000        0.00058416
     159         -0.198120        1.000000        0.00112923
     160         -0.197881        1.000000        0.00171843
     161         -0.196969        1.000000        0.00080669
     162         -0.196420        1.000000        0.00091534
     163         -0.195978        1.000000        0.00134273
     164         -0.195766        1.000000        0.00127634
     165         -0.194940        1.000000        0.00202234
     166         -0.194230        1.000000        0.00050565
     167         -0.193669        1.000000        0.00120476
     168         -0.193260        1.000000        0.00092952
     169         -0.193008        1.000000        0.00037250
     170         -0.192643        1.000000        0.00045280
     171         -0.191575        1.000000        0.00249874
     172         -0.190366        1.000000        0.00110851
     173         -0.189998        1.000000        0.00358475
     174         -0.189711        1.000000        0.00050754
     175         -0.188942        1.000000        0.00145098
     176         -0.188649        1.000000        0.00069328
     177         -0.188060        1.000000        0.00033037
     178         -0.187648        1.000000        0.00029843
     179         -0.187377        1.000000        0.00013134
     180         -0.187074        1.000000        0.00045049
     181         -0.186116        1.000000        0.00017222
     182         -0.185475        1.000000        0.00038632
     183         -0.184652        1.000000        0.00135341
     184         -0.183390        1.000000        0.00063673
     185         -0.183103        1.000000        0.00041366
     186         -0.182342        1.000000        0.00041972
     187         -0.182066        1.000000        0.00028510
     188         -0.181584        1.000000        0.00049648
     189         -0.179809        1.000000        0.00012824
     190         -0.176110        1.000000        0.00031214
     191         -0.174276        1.000000        0.00014285
     192         -0.173452        1.000000        0.00013353
     193         -0.172084        1.000000        0.00026763
     194         -0.171324        1.000000        0.00002836
     195         -0.168816        0.000000        0.00015487
     196         -0.167304        0.000000        0.00003376
     197         -0.164425        0.000000        0.00013686
     198         -0.158484        0.000000        0.00012085
     199         -0.155454        0.000000        0.00017814
     200         -0.155031        0.000000        0.00008236
     201         -0.129174        0.000000        0.00002651
     202         -0.074049        0.000000        0.00052440
     203         -0.073755        0.000000        0.00006887
     204         -0.071854        0.000000        0.00029382
     205         -0.062687        0.000000        0.00084534
     206         -0.055404        0.000000        0.00027408
     207         -0.052775        0.000000        0.00017754
     208         -0.049416        0.000000        0.00022223
     209         -0.045620        0.000000        0.00017261
     210         -0.040740        0.000000        0.00020851
     211         -0.040492        0.000000        0.00021717
     212         -0.038395        0.000000        0.00045437
     213         -0.034583        0.000000        0.00017298
     214         -0.033636        0.000000        0.00024105
     215         -0.030204        0.000000        0.00045920
     216         -0.026360        0.000000        0.00036899
     217         -0.023999        0.000000        0.00010528
     218         -0.022549        0.000000        0.00079580
     219         -0.018004        0.000000        0.00011321
     220         -0.017859        0.000000        0.00015145
     221         -0.017676        0.000000        0.00017472
     222         -0.014839        0.000000        0.00060790
     223         -0.013976        0.000000        0.00033089
     224         -0.011665        0.000000        0.00023824
     225         -0.005076        0.000000        0.00099832
     226          0.088308        0.000000        0.00337536
     227          0.098888        0.000000        0.00283961
     228          0.102781        0.000000        0.00465492
     229          0.103763        0.000000        0.00423152
     230          0.103953        0.000000        0.00389462
     231          0.109000        0.000000        0.00366259
     232          0.115318        0.000000        0.00335070
     233          0.283729        0.000000        0.66130970
     234          0.284819        0.000000        0.65850601
     235          0.286039        0.000000        0.66705068
     236          0.290041        0.000000        0.66005524
     237          0.293168        0.000000        0.65941272
     238          0.294704        0.000000        0.66298249
     239          0.295023        0.000000        0.66154989
     240          0.295167        0.000000        0.66402258
     241          0.296596        0.000000        0.65848258
     242          0.298059        0.000000        0.66131994
     243          0.300357        0.000000        0.66120001
     244          0.301918        0.000000        0.65710079
     245          0.307555        0.000000        0.66238985
     246          0.311193        0.000000        0.66182844
     247          0.316562        0.000000        0.63482215
     248          0.327639        0.000000        0.63347885
     249          0.336288        0.000000        0.63165777
     250          0.337493        0.000000        0.63144335
     251          0.337677        0.000000        0.63174076
     252          0.344756        0.000000        0.63233083
     253          0.349265        0.000000        0.63129502
     254          0.454596        0.000000        0.58397240
     255          0.459542        0.000000        0.58418741
     256          0.462974        0.000000        0.58143482
     257          0.464494        0.000000        0.57926843
     258          0.466161        0.000000        0.58132870
     259          0.467274        0.000000        0.58173427
     260          0.468492        0.000000        0.58432098
     261          0.470005        0.000000        0.58293157
     262          0.470874        0.000000        0.58511042
     263          0.472369        0.000000        0.58248773
     264          0.473060        0.000000        0.58226269
     265          0.473370        0.000000        0.58366817
     266          0.477107        0.000000        0.58387647
     267          0.479770        0.000000        0.58049200
     268          0.550721        0.000000        0.55418887
     269          0.560088        0.000000        0.55227774
     270          0.563958        0.000000        0.55257738
     271          0.566369        0.000000        0.55376640
     272          0.568050        0.000000        0.55280563
     273          0.571886        0.000000        0.55238843
     274          0.575464        0.000000        0.55317208
