# Projected DOS for atomic kind I at iteration step i = 0, E(Fermi) =    -0.172077 a.u.
#     MO Eigenvalue [a.u.]      Occupation                 s                py                pz                px
       1         -0.952918        1.000000        0.00011961        0.00043255        0.00015759        0.00007598
       2         -0.945306        1.000000        0.00015243        0.00021919        0.00041137        0.00010358
       3         -0.942427        1.000000        0.00018441        0.00050974        0.00028087        0.00021964
       4         -0.940424        1.000000        0.00012824        0.00036853        0.00007856        0.00025133
       5         -0.936657        1.000000        0.00018685        0.00033169        0.00032552        0.00019834
       6         -0.936356        1.000000        0.00017248        0.00047239        0.00026617        0.00002931
       7         -0.926082        1.000000        0.00015976        0.00039964        0.00014815        0.00026089
       8         -0.693813        1.000000        0.00075505        0.00025958        0.00013848        0.00004778
       9         -0.690003        1.000000        0.00219696        0.00060478        0.00054845        0.00021059
      10         -0.684866        1.000000        0.00163266        0.00036950        0.00036217        0.00007722
      11         -0.683701        1.000000        0.00216561        0.00023971        0.00028727        0.00033336
      12         -0.683459        1.000000        0.00166086        0.00056281        0.00015162        0.00033559
      13         -0.680384        1.000000        0.00241413        0.00054769        0.00045933        0.00031855
      14         -0.671848        1.000000        0.00164185        0.00031713        0.00025002        0.00019822
      15         -0.640367        1.000000        0.95253718        0.00117525        0.00684738        0.01710633
      16         -0.631081        1.000000        0.95071014        0.00144255        0.01579246        0.00763718
      17         -0.622812        1.000000        0.94024467        0.00642001        0.00255762        0.00938081
      18         -0.619688        1.000000        0.95971271        0.00660758        0.00185460        0.01683604
      19         -0.615429        1.000000        0.91782312        0.00913657        0.00290736        0.00164611
      20         -0.603536        1.000000        0.87347322        0.00330644        0.00742262        0.01463938
      21         -0.597807        1.000000        0.80421563        0.00449509        0.00553430        0.00624402
      22         -0.594685        1.000000        0.81291773        0.00830380        0.00552740        0.00405190
      23         -0.594373        1.000000        0.85537651        0.00500674        0.00470337        0.00879117
      24         -0.593210        1.000000        0.84843377        0.00526838        0.00487811        0.00759602
      25         -0.591257        1.000000        0.75756027        0.00415028        0.00585118        0.00568653
      26         -0.588247        1.000000        0.69407035        0.00691017        0.00273064        0.00589011
      27         -0.587614        1.000000        0.80175454        0.00712054        0.00763393        0.00770874
      28         -0.586131        1.000000        0.76531939        0.00419731        0.00344525        0.00377024
      29         -0.583927        1.000000        0.89464535        0.00417067        0.00426263        0.00963656
      30         -0.583168        1.000000        0.84091251        0.00203639        0.00790077        0.00794469
      31         -0.582586        1.000000        0.73137633        0.00360544        0.00342249        0.00389073
      32         -0.582337        1.000000        0.89548389        0.00088394        0.00341149        0.00847409
      33         -0.580369        1.000000        0.84604699        0.00298407        0.00482752        0.00402827
      34         -0.580076        1.000000        0.83863003        0.00269769        0.00414152        0.00380430
      35         -0.578440        1.000000        0.79096097        0.00680148        0.00183439        0.00095188
      36         -0.577987        1.000000        0.68875443        0.00290801        0.00265426        0.00279418
      37         -0.577675        1.000000        0.33304942        0.00207800        0.00213743        0.00197108
      38         -0.576144        1.000000        0.76820440        0.00199921        0.00227086        0.00207977
      39         -0.575209        1.000000        0.84466802        0.00138865        0.00456202        0.00189423
      40         -0.574827        1.000000        0.82347304        0.00174167        0.00279612        0.00142231
      41         -0.574316        1.000000        0.77634195        0.00169256        0.00328257        0.00378171
      42         -0.573214        1.000000        0.58028659        0.00316106        0.00339666        0.00195700
      43         -0.572806        1.000000        0.92072808        0.00189037        0.00189469        0.00041664
      44         -0.571373        1.000000        0.95991799        0.00235795        0.00052128        0.00245986
      45         -0.570790        1.000000        0.73771056        0.00667635        0.00574757        0.00242481
      46         -0.570480        1.000000        0.50146137        0.00582350        0.00221195        0.00175554
      47         -0.569812        1.000000        0.77392610        0.00459353        0.00430121        0.00138259
      48         -0.568011        1.000000        0.14182793        0.00262950        0.00066229        0.00061878
      49         -0.566927        1.000000        0.80714763        0.00095778        0.00077297        0.00410746
      50         -0.564172        1.000000        0.28214316        0.00110451        0.00188916        0.00098480
      51         -0.562723        1.000000        0.12027779        0.00061149        0.00054924        0.00086053
      52         -0.561038        1.000000        0.78728298        0.00244747        0.00140459        0.00052383
      53         -0.560386        1.000000        0.51568310        0.00456960        0.00127106        0.00197464
      54         -0.559964        1.000000        0.28725984        0.00511456        0.00085166        0.00089873
      55         -0.559374        1.000000        0.89445130        0.00234443        0.00119918        0.00563233
      56         -0.557587        1.000000        0.19297298        0.00128708        0.00104915        0.00055908
      57         -0.556621        1.000000        0.54969870        0.00106757        0.00135824        0.00081203
      58         -0.554431        1.000000        0.64198197        0.00504127        0.00097180        0.00089256
      59         -0.551156        1.000000        0.20424759        0.00638598        0.00240775        0.00162072
      60         -0.545922        1.000000        0.18346675        0.00137448        0.00164725        0.00106412
      61         -0.544889        1.000000        0.34184262        0.00162675        0.00211789        0.00168317
      62         -0.541933        1.000000        0.46196246        0.00072646        0.00137464        0.00045370
      63         -0.538446        1.000000        0.35110235        0.00101247        0.00097648        0.00105561
      64         -0.538038        1.000000        0.22520385        0.00234043        0.00094003        0.00218422
      65         -0.473953        1.000000        0.00260701        0.00193450        0.00112052        0.00026547
      66         -0.469955        1.000000        0.00502460        0.00358403        0.00327721        0.00143294
      67         -0.465112        1.000000        0.12112090        0.03322239        0.04236520        0.01888610
      68         -0.464751        1.000000        0.03369041        0.01046191        0.01332386        0.00523054
      69         -0.464189        1.000000        0.01483048        0.00680919        0.00430065        0.00544187
      70         -0.463812        1.000000        0.00327045        0.00141978        0.00258774        0.00167777
      71         -0.461699        1.000000        0.08305885        0.02420223        0.02195959        0.01757485
      72         -0.460868        1.000000        0.16394463        0.05292275        0.03881857        0.03122250
      73         -0.459448        1.000000        0.10946604        0.03034202        0.02270321        0.02041608
      74         -0.458486        1.000000        0.13148393        0.03329730        0.04254040        0.02813031
      75         -0.454240        1.000000        0.13477494        0.04125162        0.02891971        0.04304150
      76         -0.451606        1.000000        0.03076087        0.00873084        0.00738689        0.00751805
      77         -0.450241        1.000000        0.14828087        0.03666573        0.04327157        0.04288050
      78         -0.443153        1.000000        0.15023230        0.03619542        0.03902067        0.03596118
      79         -0.439584        1.000000        0.14537857        0.04368685        0.04293808        0.00870700
      80         -0.410743        1.000000        0.00173080        0.00392708        0.00041630        0.00073103
      81         -0.409901        1.000000        0.00079287        0.00064921        0.00220331        0.00072935
      82         -0.407698        1.000000        0.00191756        0.00358830        0.00524130        0.00131612
      83         -0.406292        1.000000        0.00265950        0.00628631        0.00384633        0.00257756
      84         -0.402421        1.000000        0.00193812        0.00164738        0.00403538        0.00096584
      85         -0.401821        1.000000        0.00057514        0.00274550        0.00140269        0.00128058
      86         -0.400759        1.000000        0.00133099        0.00476680        0.00201325        0.00132810
      87         -0.400112        1.000000        0.00134301        0.00189509        0.00071974        0.00306889
      88         -0.398917        1.000000        0.00366739        0.00760302        0.00111139        0.00141970
      89         -0.398313        1.000000        0.00208681        0.00193889        0.00283787        0.00314572
      90         -0.398197        1.000000        0.00190072        0.00182565        0.00365210        0.00147553
      91         -0.395468        1.000000        0.00231995        0.00571237        0.00204865        0.00108344
      92         -0.390099        1.000000        0.00076305        0.00132097        0.00112428        0.00082435
      93         -0.386858        1.000000        0.00165958        0.00380489        0.00054869        0.00231655
      94         -0.323843        1.000000        0.02827068        0.01364901        0.23844754        0.69329355
      95         -0.315921        1.000000        0.02623424        0.05090372        0.52009007        0.30518157
      96         -0.305522        1.000000        0.03186314        0.23381146        0.06548686        0.64685214
      97         -0.303267        1.000000        0.01587666        0.21683108        0.05242515        0.62106644
      98         -0.299335        1.000000        0.01550623        0.73860086        0.06332259        0.03850074
      99         -0.276640        1.000000        0.00904601        0.29922474        0.24573259        0.23011038
     100         -0.273909        1.000000        0.01278913        0.20891431        0.27227378        0.30149142
     101         -0.273376        1.000000        0.00762187        0.62426560        0.06942862        0.16183684
     102         -0.269729        1.000000        0.01617808        0.14413709        0.19384263        0.39931230
     103         -0.268748        1.000000        0.01686863        0.35604527        0.28636736        0.16120876
     104         -0.266653        1.000000        0.01783291        0.24404284        0.30294348        0.22088634
     105         -0.265242        1.000000        0.01071964        0.46992216        0.11505235        0.21997904
     106         -0.264939        1.000000        0.01813721        0.22421711        0.16825952        0.33948915
     107         -0.263329        1.000000        0.02015747        0.34825099        0.27980378        0.12830312
     108         -0.260754        1.000000        0.01330798        0.21678484        0.49548611        0.06876852
     109         -0.257656        1.000000        0.01675349        0.34749487        0.18027228        0.25259070
     110         -0.256438        1.000000        0.01966262        0.22619680        0.19662911        0.32341436
     111         -0.256062        1.000000        0.01914968        0.23198570        0.30341181        0.22933245
     112         -0.254499        1.000000        0.01725274        0.37693641        0.20196668        0.20884542
     113         -0.253895        1.000000        0.01262794        0.25271313        0.33989650        0.20858635
     114         -0.252564        1.000000        0.00579039        0.52263872        0.30363907        0.08390864
     115         -0.251026        1.000000        0.01445494        0.25783791        0.36306939        0.16783559
     116         -0.247308        1.000000        0.01293221        0.17079482        0.40934689        0.24001547
     117         -0.245709        1.000000        0.01145397        0.16986779        0.46512311        0.23882573
     118         -0.244702        1.000000        0.01145092        0.19165222        0.36585058        0.26802640
     119         -0.244476        1.000000        0.01232345        0.19925028        0.24875437        0.37642403
     120         -0.243351        1.000000        0.01515470        0.19382822        0.37287046        0.19626468
     121         -0.240288        1.000000        0.01444767        0.22292928        0.37197091        0.23146767
     122         -0.239086        1.000000        0.00487935        0.20653681        0.59042897        0.14671686
     123         -0.237191        1.000000        0.00768680        0.17935024        0.41516579        0.28964465
     124         -0.236270        1.000000        0.00999928        0.23217379        0.32616573        0.29229433
     125         -0.235699        1.000000        0.00972385        0.26785332        0.45698600        0.15528621
     126         -0.234113        1.000000        0.00696413        0.23530267        0.34785366        0.26592776
     127         -0.233478        1.000000        0.00868536        0.37896684        0.31063761        0.16056197
     128         -0.232405        1.000000        0.00953939        0.28258477        0.46847150        0.14250781
     129         -0.229411        1.000000        0.00992610        0.30320134        0.30118138        0.34396595
     130         -0.227763        1.000000        0.00568386        0.27317799        0.28947928        0.33853946
     131         -0.225413        1.000000        0.00474444        0.44695148        0.31040566        0.17745090
     132         -0.224052        1.000000        0.00283282        0.41151104        0.40057501        0.14326981
     133         -0.222361        1.000000        0.00243020        0.24628455        0.43123834        0.24065711
     134         -0.220691        1.000000        0.00612753        0.38276196        0.25735775        0.28363337
     135         -0.219020        1.000000        0.00494949        0.39226067        0.25307417        0.28807404
     136         -0.218327        1.000000        0.00786464        0.37092475        0.16263386        0.41146119
     137         -0.216233        1.000000        0.00547534        0.25658252        0.23061693        0.45019578
     138         -0.215483        1.000000        0.00334167        0.38959771        0.38451176        0.15899080
     139         -0.214606        1.000000        0.00240850        0.27888409        0.61212214        0.07956718
     140         -0.214369        1.000000        0.00185407        0.29871469        0.48047245        0.19596008
     141         -0.213409        1.000000        0.00533811        0.22880162        0.56760360        0.14161128
     142         -0.211776        1.000000        0.00238793        0.41553053        0.32183203        0.23525136
     143         -0.211151        1.000000        0.00272917        0.42253472        0.35557832        0.19628867
     144         -0.210146        1.000000        0.00320945        0.33352724        0.35299793        0.27947408
     145         -0.208580        1.000000        0.00281759        0.57203471        0.21417992        0.17512532
     146         -0.208428        1.000000        0.00199122        0.28952799        0.29046123        0.37537987
     147         -0.207772        1.000000        0.00144574        0.36685811        0.26610353        0.34336537
     148         -0.207418        1.000000        0.00153603        0.43770669        0.21057015        0.33028019
     149         -0.205794        1.000000        0.00212174        0.40706441        0.19841600        0.36719011
     150         -0.205456        1.000000        0.00272032        0.45255518        0.22963496        0.28634778
     151         -0.205045        1.000000        0.00321928        0.35692316        0.25738339        0.35605746
     152         -0.203876        1.000000        0.00286292        0.36157638        0.16859024        0.43649090
     153         -0.203271        1.000000        0.00317416        0.32414951        0.28427898        0.33375759
     154         -0.202406        1.000000        0.00400663        0.31208316        0.14346915        0.51855182
     155         -0.201918        1.000000        0.00353607        0.24963858        0.31259953        0.41194511
     156         -0.201170        1.000000        0.00263430        0.35464128        0.33795877        0.26173248
     157         -0.200653        1.000000        0.00252708        0.25077945        0.24141668        0.48479472
     158         -0.199566        1.000000        0.00251702        0.25787220        0.30267129        0.40336052
     159         -0.198541        1.000000        0.00138730        0.32723521        0.30586592        0.34053201
     160         -0.197965        1.000000        0.00336949        0.22979969        0.25053779        0.49747020
     161         -0.197009        1.000000        0.00101579        0.43170877        0.35277603        0.19730185
     162         -0.196589        1.000000        0.00101988        0.38131067        0.20103526        0.39437715
     163         -0.196294        1.000000        0.00195777        0.38963169        0.31668370        0.26956639
     164         -0.195928        1.000000        0.00156074        0.31017539        0.27169282        0.39070213
     165         -0.195080        1.000000        0.00173367        0.30249011        0.24284690        0.43831856
     166         -0.194735        1.000000        0.00130998        0.43784311        0.27884717        0.26003138
     167         -0.193768        1.000000        0.00289676        0.42336801        0.39760559        0.14872611
     168         -0.193492        1.000000        0.00175586        0.50998140        0.23906959        0.22744256
     169         -0.193362        1.000000        0.00100199        0.19741919        0.30535570        0.48756727
     170         -0.192850        1.000000        0.00081956        0.41288986        0.19665575        0.37201746
     171         -0.191806        1.000000        0.00251021        0.41538739        0.41233817        0.14446426
     172         -0.191160        1.000000        0.00095065        0.21535900        0.43458087        0.33363242
     173         -0.190214        1.000000        0.00194278        0.35145550        0.28454807        0.34002497
     174         -0.190079        1.000000        0.00330634        0.44861660        0.18358967        0.33578781
     175         -0.189442        1.000000        0.00158252        0.35074858        0.36162148        0.26916686
     176         -0.188828        1.000000        0.00150982        0.34055122        0.29908465        0.33840855
     177         -0.188175        1.000000        0.00085070        0.24877858        0.55191229        0.18843830
     178         -0.187748        1.000000        0.00109428        0.22896552        0.13983953        0.61364067
     179         -0.187689        1.000000        0.00088724        0.23287674        0.32355053        0.43442223
     180         -0.187342        1.000000        0.00032774        0.25572872        0.47716362        0.26046978
     181         -0.186849        1.000000        0.00082063        0.45486365        0.39927246        0.12600622
     182         -0.186471        1.000000        0.00069010        0.26029400        0.18684500        0.53772749
     183         -0.186117        1.000000        0.00031565        0.53268960        0.19148887        0.26972344
     184         -0.184686        1.000000        0.00100367        0.21500361        0.60022814        0.17391029
     185         -0.184078        1.000000        0.00117356        0.32131633        0.18450077        0.47322378
     186         -0.183198        1.000000        0.00219837        0.24500637        0.45747327        0.26634967
     187         -0.182472        1.000000        0.00126187        0.29001966        0.34798094        0.34013535
     188         -0.182396        1.000000        0.00049793        0.19776445        0.29595778        0.50044331
     189         -0.181912        1.000000        0.00190434        0.30997188        0.31699971        0.34491692
     190         -0.178393        1.000000        0.00036713        0.28069470        0.57050052        0.14421612
     191         -0.176335        1.000000        0.00115495        0.10708491        0.55452292        0.27939685
     192         -0.174275        1.000000        0.00021882        0.24529396        0.12556967        0.62576227
     193         -0.174210        1.000000        0.00019783        0.12747341        0.10312954        0.76519346
     194         -0.172599        1.000000        0.00087148        0.14230920        0.37410656        0.38873096
     195         -0.172077        1.000000        0.00122906        0.17534813        0.46383254        0.25175111
     196         -0.168826        0.000000        0.00122155        0.28346160        0.26455351        0.32232541
     197         -0.167272        0.000000        0.00984020        0.09845941        0.58726869        0.24086039
     198         -0.160679        0.000000        0.00400844        0.60667297        0.20191656        0.09009275
     199         -0.155514        0.000000        0.01132502        0.06149919        0.20885078        0.67706495
     200         -0.155092        0.000000        0.00482144        0.21011738        0.08625606        0.63258711
     201         -0.129183        0.000000        0.00792076        0.26562197        0.00403397        0.72188994
     202         -0.074147        0.000000        0.01413251        0.06309019        0.11161208        0.07139529
     203         -0.073773        0.000000        0.01224238        0.09916513        0.05870512        0.09471944
     204         -0.072840        0.000000        0.02468831        0.05796506        0.05804122        0.08411822
     205         -0.062706        0.000000        0.02545168        0.10036931        0.07299650        0.07691157
     206         -0.055849        0.000000        0.01545284        0.10656094        0.06632747        0.08843311
     207         -0.052998        0.000000        0.02039306        0.05342583        0.10737718        0.11742532
     208         -0.049523        0.000000        0.01782104        0.14628718        0.02725783        0.09972106
     209         -0.046686        0.000000        0.01277672        0.09717876        0.04619203        0.13676776
     210         -0.040753        0.000000        0.01946267        0.20426773        0.03221122        0.05632130
     211         -0.040502        0.000000        0.02264915        0.04228309        0.17451984        0.06848189
     212         -0.038561        0.000000        0.02068308        0.05428915        0.14575845        0.08800230
     213         -0.034739        0.000000        0.02090217        0.04005747        0.18327110        0.06923123
     214         -0.033647        0.000000        0.02239955        0.03816081        0.19569927        0.06285360
     215         -0.030606        0.000000        0.01760320        0.10733715        0.14371380        0.03659883
     216         -0.026412        0.000000        0.02461673        0.12835355        0.05348096        0.11275356
     217         -0.024009        0.000000        0.02660491        0.03139465        0.24894003        0.02594544
     218         -0.022599        0.000000        0.01846614        0.14366618        0.05011328        0.10033381
     219         -0.020635        0.000000        0.01980852        0.19579395        0.03180482        0.05822551
     220         -0.017987        0.000000        0.02267504        0.12402360        0.02860250        0.14586375
     221         -0.017747        0.000000        0.02355228        0.10820009        0.03641716        0.15443590
     222         -0.014872        0.000000        0.02364667        0.03625417        0.21427894        0.04039212
     223         -0.014478        0.000000        0.02157542        0.16334068        0.09383048        0.03807022
     224         -0.011897        0.000000        0.02659625        0.21258462        0.02467721        0.06966681
     225         -0.008741        0.000000        0.02693499        0.03920612        0.22961127        0.01444809
     226          0.088305        0.000000        0.00002608        0.00070151        0.00043553        0.00002807
     227          0.098884        0.000000        0.00007946        0.00037593        0.00176201        0.00075708
     228          0.102780        0.000000        0.00011780        0.00050618        0.00113844        0.00048900
     229          0.103763        0.000000        0.00006880        0.00126997        0.00024428        0.00111171
     230          0.103953        0.000000        0.00005674        0.00120917        0.00092014        0.00022167
     231          0.109000        0.000000        0.00013455        0.00112364        0.00133209        0.00096871
     232          0.115318        0.000000        0.00004840        0.00096382        0.00076784        0.00063148
     233          0.283665        0.000000        0.00079570        0.01162017        0.00143323        0.00196228
     234          0.284817        0.000000        0.00010196        0.00084670        0.00258804        0.00028782
     235          0.286037        0.000000        0.00210970        0.00018190        0.00334654        0.00890024
     236          0.290041        0.000000        0.00022231        0.00277749        0.00050423        0.00101003
     237          0.293168        0.000000        0.00005896        0.00027275        0.00022643        0.00135426
     238          0.294703        0.000000        0.00053204        0.01069918        0.00601319        0.00293698
     239          0.295023        0.000000        0.00075813        0.00536838        0.00854692        0.00259246
     240          0.295166        0.000000        0.00071832        0.01247917        0.00195008        0.00387729
     241          0.296596        0.000000        0.00042588        0.00542214        0.00242624        0.00012727
     242          0.298058        0.000000        0.00012561        0.00179236        0.00249931        0.00182082
     243          0.300357        0.000000        0.00082200        0.01025235        0.00541028        0.00025778
     244          0.301918        0.000000        0.00015640        0.00051710        0.00215389        0.00080204
     245          0.307553        0.000000        0.00068646        0.00662823        0.00048295        0.00691749
     246          0.311190        0.000000        0.00048505        0.00800693        0.00083080        0.00141705
     247          0.316485        0.000000        0.00084963        0.01163717        0.00282228        0.00255307
     248          0.327639        0.000000        0.00079051        0.00445061        0.00759197        0.00247380
     249          0.336288        0.000000        0.00101461        0.00811441        0.00162960        0.00513808
     250          0.337491        0.000000        0.00145274        0.00310311        0.00473161        0.00732043
     251          0.337677        0.000000        0.00098004        0.01145995        0.00631407        0.00119395
     252          0.344754        0.000000        0.00034225        0.01797771        0.00394989        0.00250157
     253          0.349259        0.000000        0.00086316        0.00960889        0.00091563        0.00670183
     254          0.454596        0.000000        0.00001005        0.00007622        0.00024876        0.00007345
     255          0.459539        0.000000        0.00004238        0.00050416        0.00018581        0.00026973
     256          0.462974        0.000000        0.00004431        0.00022613        0.00017999        0.00020937
     257          0.464494        0.000000        0.00006305        0.00079511        0.00063940        0.00008906
     258          0.466160        0.000000        0.00005791        0.00051702        0.00049959        0.00028451
     259          0.467274        0.000000        0.00003789        0.00037494        0.00029673        0.00016215