# Projected DOS for atomic kind Pb at iteration step i = 0, E(Fermi) =    -0.171324 a.u.
#     MO Eigenvalue [a.u.]      Occupation                 s                py                pz                px
       1         -0.952921        1.000000        0.00000006        0.00000013        0.00000072        0.00000009
       2         -0.945306        1.000000        0.00000041        0.00000303        0.00000698        0.00000353
       3         -0.942426        1.000000        0.00000021        0.00000088        0.00000127        0.00000056
       4         -0.940424        1.000000        0.00000063        0.00000725        0.00000575        0.00000603
       5         -0.936657        1.000000        0.00000063        0.00000659        0.00000722        0.00000364
       6         -0.936356        1.000000        0.00000047        0.00000255        0.00000351        0.00000487
       7         -0.926083        1.000000        0.00000116        0.00001519        0.00001020        0.00000968
       8         -0.693810        1.000000        0.00000291        0.00000206        0.00000482        0.00000014
       9         -0.690003        1.000000        0.00001597        0.00001374        0.00001442        0.00000794
      10         -0.684865        1.000000        0.00003322        0.00002295        0.00003224        0.00001148
      11         -0.683700        1.000000        0.00002318        0.00002934        0.00003775        0.00002321
      12         -0.683458        1.000000        0.00008448        0.00008370        0.00004665        0.00006168
      13         -0.680384        1.000000        0.00004099        0.00003747        0.00005460        0.00003597
      14         -0.671847        1.000000        0.00006805        0.00005094        0.00003940        0.00001949
      15         -0.640367        1.000000        0.00170249        0.00027805        0.00206332        0.00047854
      16         -0.631104        1.000000        0.01276610        0.00034422        0.00628153        0.00080997
      17         -0.622824        1.000000        0.02272656        0.00748789        0.00040606        0.00843930
      18         -0.619653        1.000000        0.00134749        0.00558747        0.00005179        0.00010374
      19         -0.614886        1.000000        0.03993770        0.01125674        0.00070032        0.00070608
      20         -0.603481        1.000000        0.04519833        0.00220157        0.00331698        0.00851445
      21         -0.597755        1.000000        0.11770191        0.00814118        0.00037739        0.00104261
      22         -0.594224        1.000000        0.10556204        0.00449592        0.00075140        0.01032342
      23         -0.594030        1.000000        0.09813868        0.00394529        0.00130129        0.00872769
      24         -0.592276        1.000000        0.06345055        0.00453600        0.00179691        0.01900210
      25         -0.591212        1.000000        0.02532852        0.01169013        0.00097892        0.00458497
      26         -0.587664        1.000000        0.07300867        0.00772767        0.00395498        0.00067487
      27         -0.586485        1.000000        0.04119431        0.00329025        0.00195177        0.00810394
      28         -0.585401        1.000000        0.01099451        0.00328744        0.00241699        0.00894697
      29         -0.583846        1.000000        0.03329430        0.02093002        0.00111619        0.00367894
      30         -0.582997        1.000000        0.00910626        0.00206658        0.00386982        0.00430176
      31         -0.582420        1.000000        0.02148020        0.00894703        0.00576853        0.00275905
      32         -0.582208        1.000000        0.01141828        0.00421265        0.00292836        0.00452174
      33         -0.580324        1.000000        0.02122951        0.00324486        0.02523988        0.00472491
      34         -0.580057        1.000000        0.01712552        0.00553213        0.02496490        0.00343378
      35         -0.577897        1.000000        0.03320975        0.00847135        0.00916164        0.00924187
      36         -0.577824        1.000000        0.00499487        0.00176695        0.00196809        0.00084580
      37         -0.576943        1.000000        0.02041437        0.01170966        0.01000600        0.00091748
      38         -0.575892        1.000000        0.00493135        0.00387100        0.01394337        0.00565562
      39         -0.574955        1.000000        0.01440280        0.01264839        0.01283986        0.00518896
      40         -0.574744        1.000000        0.00967361        0.01271503        0.01698020        0.00420189
      41         -0.574171        1.000000        0.01028378        0.00256695        0.01789015        0.00386336
      42         -0.573190        1.000000        0.00177274        0.00586986        0.00178182        0.01192513
      43         -0.572514        1.000000        0.00024929        0.01512075        0.02510057        0.00664697
      44         -0.571375        1.000000        0.00138996        0.01834561        0.00522507        0.00369293
      45         -0.570494        1.000000        0.00462929        0.00129270        0.01086484        0.00252255
      46         -0.569629        1.000000        0.05282016        0.00150869        0.01446790        0.00492673
      47         -0.568007        1.000000        0.00271043        0.00092784        0.00116194        0.00061024
      48         -0.567088        1.000000        0.02757295        0.00211283        0.01123162        0.02256538
      49         -0.565591        1.000000        0.07142958        0.01772262        0.00649048        0.00410983
      50         -0.564140        1.000000        0.00190981        0.00307734        0.00174492        0.00627834
      51         -0.562719        1.000000        0.00594439        0.00155052        0.00232414        0.00017828
      52         -0.560392        1.000000        0.00858264        0.00939561        0.00227514        0.00058107
      53         -0.559963        1.000000        0.00728070        0.00768585        0.00073537        0.00052804
      54         -0.559468        1.000000        0.00080380        0.00136249        0.00096299        0.00124908
      55         -0.557586        1.000000        0.00490897        0.00025510        0.00168076        0.00571632
      56         -0.554222        1.000000        0.02480974        0.02248080        0.00639218        0.00057526
      57         -0.553683        1.000000        0.00421968        0.00746972        0.03132796        0.00052866
      58         -0.552344        1.000000        0.00354009        0.01437364        0.00012257        0.00061220
      59         -0.551138        1.000000        0.02606235        0.00293039        0.00072422        0.00061918
      60         -0.545806        1.000000        0.00299237        0.00114528        0.00674726        0.00022763
      61         -0.544886        1.000000        0.01162075        0.00240192        0.00396187        0.00694173
      62         -0.541934        1.000000        0.00196075        0.00012133        0.01354155        0.00448825
      63         -0.538424        1.000000        0.00037250        0.00447207        0.00140065        0.00016592
      64         -0.537831        1.000000        0.00926959        0.00126336        0.00799633        0.00017255
      65         -0.473928        1.000000        0.00248861        0.00002303        0.00011057        0.00001023
      66         -0.469954        1.000000        0.01216096        0.00005718        0.00009678        0.00004546
      67         -0.465117        1.000000        0.57675141        0.00008399        0.00181254        0.00013424
      68         -0.464752        1.000000        0.15471349        0.00005307        0.00029763        0.00004249
      69         -0.464187        1.000000        0.06721153        0.00017395        0.00010009        0.00003274
      70         -0.463805        1.000000        0.01126875        0.00004028        0.00003088        0.00003096
      71         -0.461691        1.000000        0.31196890        0.00038884        0.00028120        0.00022444
      72         -0.460664        1.000000        0.58588475        0.00094722        0.00052777        0.00061801
      73         -0.459418        1.000000        0.40917928        0.00046509        0.00023569        0.00034797
      74         -0.458458        1.000000        0.73630476        0.00002499        0.00115596        0.00014294
      75         -0.454139        1.000000        0.58870793        0.00077861        0.00044579        0.00068392
      76         -0.451577        1.000000        0.11186960        0.00007470        0.00012203        0.00025387
      77         -0.447662        1.000000        0.72080743        0.00171721        0.00124167        0.00085234
      78         -0.443151        1.000000        0.70983758        0.00044315        0.00038987        0.00043699
      79         -0.438487        1.000000        0.74627852        0.00033514        0.00013923        0.00066011
      80         -0.410725        1.000000        0.00065847        0.00000249        0.00007979        0.00000672
      81         -0.409899        1.000000        0.00005892        0.00001020        0.00000963        0.00000208
      82         -0.407698        1.000000        0.00071428        0.00007858        0.00001377        0.00009533
      83         -0.406289        1.000000        0.00119966        0.00004845        0.00007401        0.00010751
      84         -0.402421        1.000000        0.00034188        0.00015389        0.00024531        0.00004023
      85         -0.401817        1.000000        0.00030641        0.00008487        0.00014928        0.00001375
      86         -0.400759        1.000000        0.00013178        0.00004368        0.00008750        0.00004826
      87         -0.400111        1.000000        0.00040856        0.00020297        0.00004295        0.00009527
      88         -0.398917        1.000000        0.00093938        0.00043036        0.00028188        0.00020586
      89         -0.398310        1.000000        0.00046357        0.00015722        0.00015825        0.00008838
      90         -0.398196        1.000000        0.00055989        0.00013373        0.00012373        0.00014082
      91         -0.395468        1.000000        0.00087972        0.00005568        0.00027787        0.00026579
      92         -0.390098        1.000000        0.00006823        0.00001275        0.00003621        0.00001045
      93         -0.386841        1.000000        0.00019414        0.00005391        0.00014510        0.00003532
      94         -0.323849        1.000000        0.00592731        0.00689031        0.00789987        0.00203873
      95         -0.315952        1.000000        0.00417244        0.02307175        0.05191933        0.01787335
      96         -0.305510        1.000000        0.00105579        0.00853476        0.00861977        0.00275059
      97         -0.303277        1.000000        0.00923588        0.05915229        0.00814042        0.01631198
      98         -0.298800        1.000000        0.00535336        0.10567971        0.00519736        0.02791802
      99         -0.276492        1.000000        0.00561994        0.09289081        0.08043009        0.03398237
     100         -0.273732        1.000000        0.00199329        0.09738385        0.04719581        0.02131696
     101         -0.273066        1.000000        0.00741072        0.07282339        0.03831040        0.02958818
     102         -0.269512        1.000000        0.00240165        0.06694725        0.09095587        0.08502162
     103         -0.268426        1.000000        0.00162465        0.10322449        0.05277397        0.01892649
     104         -0.265560        1.000000        0.00390865        0.03700020        0.04971295        0.11293476
     105         -0.264931        1.000000        0.00101921        0.01696034        0.05667332        0.18081316
     106         -0.264691        1.000000        0.00489140        0.06287451        0.04753011        0.07286247
     107         -0.262923        1.000000        0.00098784        0.06249608        0.09051268        0.07032333
     108         -0.257322        1.000000        0.00191128        0.06444545        0.08246501        0.04283487
     109         -0.256895        1.000000        0.00156863        0.04179654        0.09530791        0.07378166
     110         -0.256131        1.000000        0.00016388        0.06677062        0.10931335        0.04464709
     111         -0.255740        1.000000        0.00067045        0.11073905        0.06572463        0.04406856
     112         -0.254158        1.000000        0.00078228        0.01944377        0.11234203        0.04286604
     113         -0.252575        1.000000        0.00061029        0.04912128        0.01795395        0.01509134
     114         -0.251754        1.000000        0.00123384        0.03754926        0.09222041        0.05861253
     115         -0.250358        1.000000        0.00181473        0.03488291        0.11972678        0.02487943
     116         -0.247144        1.000000        0.00447872        0.03629726        0.09838224        0.02466504
     117         -0.245542        1.000000        0.00705397        0.02759958        0.02617790        0.03465428
     118         -0.244403        1.000000        0.00294726        0.06055438        0.02412181        0.09172070
     119         -0.243421        1.000000        0.00440358        0.04462036        0.05917855        0.07032547
     120         -0.242997        1.000000        0.00606520        0.06485391        0.06129750        0.07712635
     121         -0.239911        1.000000        0.00394501        0.06170560        0.04612073        0.02271412
     122         -0.238444        1.000000        0.00122362        0.01964583        0.03304651        0.01286835
     123         -0.236608        1.000000        0.00449314        0.03759348        0.01485145        0.05634745
     124         -0.236013        1.000000        0.00673911        0.02760527        0.01645038        0.05989441
     125         -0.235207        1.000000        0.00184636        0.06318135        0.06041227        0.01569790
     126         -0.233913        1.000000        0.00452557        0.03385495        0.03349079        0.05513129
     127         -0.232357        1.000000        0.00290565        0.02342463        0.03123549        0.07537320
     128         -0.231974        1.000000        0.00823687        0.01402299        0.05470907        0.01804581
     129         -0.229303        1.000000        0.00271188        0.01470745        0.00424735        0.01328599
     130         -0.227525        1.000000        0.00635457        0.03268580        0.01722687        0.03269444
     131         -0.224407        1.000000        0.00315955        0.00991098        0.00809764        0.01468084
     132         -0.223099        1.000000        0.00650629        0.02554423        0.01671549        0.01547402
     133         -0.221927        1.000000        0.00832147        0.01331426        0.02980406        0.01519403
     134         -0.219921        1.000000        0.00857471        0.02339722        0.00393236        0.02271279
     135         -0.218616        1.000000        0.01189335        0.02373905        0.00745745        0.01708609
     136         -0.217955        1.000000        0.00646973        0.01662790        0.01189969        0.00831021
     137         -0.215980        1.000000        0.00965834        0.01801102        0.00993693        0.01625626
     138         -0.215282        1.000000        0.00849691        0.01485132        0.01691318        0.00519962
     139         -0.214268        1.000000        0.00368432        0.00393597        0.00628296        0.00521015
     140         -0.213956        1.000000        0.00208770        0.00550229        0.00837523        0.00393730
     141         -0.212336        1.000000        0.00745632        0.01211556        0.01195425        0.01002742
     142         -0.211675        1.000000        0.00138969        0.00393461        0.00160811        0.00345112
     143         -0.210759        1.000000        0.00210852        0.00634721        0.00228358        0.00322868
     144         -0.209501        1.000000        0.00327849        0.00417053        0.00765108        0.00208413
     145         -0.207904        1.000000        0.00670264        0.01670740        0.00481265        0.00481722
     146         -0.207805        1.000000        0.01001592        0.00574699        0.00568598        0.00971240
     147         -0.207349        1.000000        0.00428915        0.00469427        0.00271216        0.00154575
     148         -0.206403        1.000000        0.00499637        0.00118574        0.00416683        0.00541595
     149         -0.205587        1.000000        0.00424984        0.00225970        0.00278932        0.00649858
     150         -0.205023        1.000000        0.00612196        0.00674873        0.00396137        0.00998590
     151         -0.204515        1.000000        0.00539415        0.00532362        0.00666102        0.01073917
     152         -0.203629        1.000000        0.00641772        0.00781773        0.00382303        0.00507407
     153         -0.202297        1.000000        0.00608313        0.00230552        0.00338292        0.00570368
     154         -0.201945        1.000000        0.01175682        0.00869697        0.00728178        0.01998709
     155         -0.201719        1.000000        0.00477657        0.00346696        0.00348260        0.00624053
     156         -0.201037        1.000000        0.01122829        0.00965958        0.00474688        0.01116911
     157         -0.200342        1.000000        0.00471958        0.00443881        0.00290221        0.00190635
     158         -0.199338        1.000000        0.01043230        0.00452014        0.00327773        0.01203055
     159         -0.198120        1.000000        0.00947931        0.00282889        0.00372783        0.00711524
     160         -0.197881        1.000000        0.00254609        0.00240141        0.00138859        0.00383145
     161         -0.196969        1.000000        0.00302968        0.00291947        0.00109216        0.00455421
     162         -0.196420        1.000000        0.00622310        0.00171090        0.00205165        0.00136908
     163         -0.195978        1.000000        0.00423747        0.00069710        0.00120435        0.00497372
     164         -0.195766        1.000000        0.00998893        0.00213691        0.00211885        0.00676855
     165         -0.194940        1.000000        0.00113047        0.00043741        0.00089174        0.00146101
     166         -0.194230        1.000000        0.00728806        0.00309532        0.00209897        0.00491234
     167         -0.193669        1.000000        0.00948943        0.00364782        0.00289067        0.00213699
     168         -0.193260        1.000000        0.00116508        0.00060280        0.00033624        0.00078607
     169         -0.193008        1.000000        0.00892726        0.00165755        0.00245925        0.00427592
     170         -0.192643        1.000000        0.01261615        0.00193605        0.00287166        0.00577202
     171         -0.191575        1.000000        0.00436889        0.00176897        0.00277632        0.00166348
     172         -0.190366        1.000000        0.00289535        0.00425625        0.00116043        0.00677165
     173         -0.189998        1.000000        0.00334444        0.00136474        0.00046367        0.00322665
     174         -0.189711        1.000000        0.00316745        0.00283670        0.00068619        0.00289872
     175         -0.188942        1.000000        0.00556674        0.00179252        0.00298192        0.00707928
     176         -0.188649        1.000000        0.00560318        0.00181312        0.00151829        0.00295024
     177         -0.188060        1.000000        0.00519291        0.00161944        0.00068890        0.00363562
     178         -0.187648        1.000000        0.00681606        0.00257338        0.00172730        0.00493506
     179         -0.187377        1.000000        0.00215511        0.00079275        0.00053766        0.00150653
     180         -0.187074        1.000000        0.00429698        0.00192985        0.00083689        0.00176313
     181         -0.186116        1.000000        0.00160664        0.00062895        0.00113388        0.00150617
     182         -0.185475        1.000000        0.00296192        0.00024253        0.00061403        0.00499424
     183         -0.184652        1.000000        0.00078609        0.00097399        0.00028847        0.00081163
     184         -0.183390        1.000000        0.00945382        0.00196023        0.00221648        0.00141213
     185         -0.183103        1.000000        0.01567734        0.00223474        0.00245571        0.00413787
     186         -0.182342        1.000000        0.00145292        0.00020715        0.00032826        0.00208551
     187         -0.182066        1.000000        0.02109550        0.00545393        0.00146057        0.01225676
     188         -0.181584        1.000000        0.00430815        0.00077476        0.00105076        0.00043623
     189         -0.179809        1.000000        0.00623751        0.00190944        0.00123035        0.00177103
     190         -0.176110        1.000000        0.00230567        0.00165030        0.00001992        0.00013446
     191         -0.174276        1.000000        0.00117545        0.00047627        0.00019592        0.00065240
     192         -0.173452        1.000000        0.02297986        0.00694494        0.00242754        0.00070923
     193         -0.172084        1.000000        0.08824521        0.01038126        0.00376626        0.00577973
     194         -0.171324        1.000000        0.00678852        0.00144667        0.00174860        0.00117312
     195         -0.168816        0.000000        0.11761276        0.00366421        0.00336640        0.00337777
     196         -0.167304        0.000000        0.05113161        0.00077416        0.00194777        0.00946713
     197         -0.164425        0.000000        0.09508576        0.00518845        0.00177255        0.00503591
     198         -0.158484        0.000000        0.08126380        0.00309759        0.00035980        0.00416818
     199         -0.155454        0.000000        0.01550119        0.01393257        0.00641677        0.00848857
     200         -0.155031        0.000000        0.05503823        0.00585120        0.00172057        0.00194964
     201         -0.129174        0.000000        0.00008436        0.00014958        0.00006824        0.00012553
     202         -0.074049        0.000000        0.00672840        0.15772208        0.09446506        0.47196445
     203         -0.073755        0.000000        0.00010990        0.05799631        0.00738169        0.66832258
     204         -0.071854        0.000000        0.00061159        0.05923309        0.09845008        0.62303782
     205         -0.062687        0.000000        0.00615239        0.21755355        0.13772104        0.36031393
     206         -0.055404        0.000000        0.01134302        0.16536261        0.10362619        0.44052163
     207         -0.052775        0.000000        0.00501503        0.07032789        0.03777401        0.58762058
     208         -0.049416        0.000000        0.00184160        0.38307602        0.04772936        0.27455949
     209         -0.045620        0.000000        0.00408781        0.13217217        0.14064373        0.42859867
     210         -0.040740        0.000000        0.00285660        0.55361310        0.07947321        0.05118562
     211         -0.040492        0.000000        0.00466510        0.11486710        0.55322811        0.01869135
     212         -0.038395        0.000000        0.00524733        0.09783094        0.28088847        0.30584099
     213         -0.034583        0.000000        0.00297476        0.11303279        0.45268337        0.11622994
     214         -0.033636        0.000000        0.00161143        0.22481586        0.42789509        0.02580622
     215         -0.030204        0.000000        0.00514726        0.25783407        0.36657458        0.06410381
     216         -0.026360        0.000000        0.00061588        0.28468282        0.15621254        0.23796178
     217         -0.023999        0.000000        0.00220194        0.05049070        0.59453831        0.01928413
     218         -0.022549        0.000000        0.00131442        0.39928647        0.19850327        0.08625966
     219         -0.018004        0.000000        0.00158974        0.37847958        0.13133107        0.16958456
     220         -0.017859        0.000000        0.00101834        0.39510929        0.08951084        0.19614898
     221         -0.017676        0.000000        0.00032175        0.20498540        0.09916338        0.37223141
     222         -0.014839        0.000000        0.00011697        0.04038965        0.59919318        0.04478284
     223         -0.013976        0.000000        0.00071157        0.52008096        0.13997303        0.01936110
     224         -0.011665        0.000000        0.00030519        0.57099960        0.02176713        0.07067507
     225         -0.005076        0.000000        0.00017980        0.04268526        0.61221465        0.01098213
     226          0.088308        0.000000        0.00000083        0.00003773        0.00008036        0.00001630
     227          0.098888        0.000000        0.00000177        0.00021344        0.00006107        0.00001346
     228          0.102781        0.000000        0.00000974        0.00015949        0.00003968        0.00005491
     229          0.103763        0.000000        0.00000448        0.00051461        0.00015734        0.00007673
     230          0.103953        0.000000        0.00000047        0.00007444        0.00003274        0.00001432
     231          0.109000        0.000000        0.00000657        0.00008513        0.00007093        0.00017497
     232          0.115318        0.000000        0.00000100        0.00005863        0.00009020        0.00001733
     233          0.283729        0.000000        0.00001518        0.00012059        0.00031203        0.00000317
     234          0.284819        0.000000        0.00000578        0.00009521        0.00004680        0.00000618
     235          0.286039        0.000000        0.00000638        0.00005488        0.00022982        0.00000897
     236          0.290041        0.000000        0.00000525        0.00003243        0.00001930        0.00000052
     237          0.293168        0.000000        0.00000089        0.00004248        0.00005111        0.00012509
     238          0.294704        0.000000        0.00001260        0.00033446        0.00005146        0.00002917
     239          0.295023        0.000000        0.00000692        0.00014914        0.00007241        0.00002175
     240          0.295167        0.000000        0.00000588        0.00006836        0.00015424        0.00006511
     241          0.296596        0.000000        0.00000548        0.00006951        0.00002838        0.00006186
     242          0.298059        0.000000        0.00003582        0.00020106        0.00007196        0.00007039
     243          0.300357        0.000000        0.00000374        0.00007607        0.00002792        0.00013715
     244          0.301918        0.000000        0.00000368        0.00002138        0.00003315        0.00003638
     245          0.307555        0.000000        0.00000178        0.00003526        0.00007174        0.00003623
     246          0.311193        0.000000        0.00000312        0.00003426        0.00003260        0.00002233
     247          0.316562        0.000000        0.00001937        0.00012637        0.00031131        0.00001434
     248          0.327639        0.000000        0.00000364        0.00008543        0.00001153        0.00001171
     249          0.336288        0.000000        0.00002401        0.00016406        0.00013342        0.00016846
     250          0.337493        0.000000        0.00002245        0.00008414        0.00012467        0.00005800
     251          0.337677        0.000000        0.00000512        0.00003661        0.00002440        0.00025665
     252          0.344756        0.000000        0.00000986        0.00008281        0.00007185        0.00004055
     253          0.349265        0.000000        0.00000435        0.00003328        0.00010374        0.00002477
     254          0.454596        0.000000        0.00000021        0.00000284        0.00000117        0.00000035
     255          0.459542        0.000000        0.00000058        0.00000591        0.00001196        0.00000090
     256          0.462974        0.000000        0.00000043        0.00000681        0.00001218        0.00000472
     257          0.464494        0.000000        0.00000471        0.00000585        0.00001051        0.00003336
     258          0.466161        0.000000        0.00000210        0.00000826        0.00000900        0.00001172
     259          0.467274        0.000000        0.00000051        0.00000845        0.00008809        0.00001778