# Projected DOS for atomic kind H at iteration step i = 0, E(Fermi) =    -0.172077 a.u.
#     MO Eigenvalue [a.u.]      Occupation                 s
       1         -0.952918        1.000000        0.28164566
       2         -0.945306        1.000000        0.28346108
       3         -0.942427        1.000000        0.28037281
       4         -0.940424        1.000000        0.28246481
       5         -0.936657        1.000000        0.27978730
       6         -0.936356        1.000000        0.28130528
       7         -0.926082        1.000000        0.28053860
       8         -0.693813        1.000000        0.34284056
       9         -0.690003        1.000000        0.34834035
      10         -0.684866        1.000000        0.34845404
      11         -0.683701        1.000000        0.34081309
      12         -0.683459        1.000000        0.34387020
      13         -0.680384        1.000000        0.34522075
      14         -0.671848        1.000000        0.34654779
      15         -0.640367        1.000000        0.00807850
      16         -0.631081        1.000000        0.00158354
      17         -0.622812        1.000000        0.00079845
      18         -0.619688        1.000000        0.00272812
      19         -0.615429        1.000000        0.00680446
      20         -0.603536        1.000000        0.01524372
      21         -0.597807        1.000000        0.02002217
      22         -0.594685        1.000000        0.01798050
      23         -0.594373        1.000000        0.00679792
      24         -0.593210        1.000000        0.01335065
      25         -0.591257        1.000000        0.07269963
      26         -0.588247        1.000000        0.09321572
      27         -0.587614        1.000000        0.03818506
      28         -0.586131        1.000000        0.06233535
      29         -0.583927        1.000000        0.01158977
      30         -0.583168        1.000000        0.04480105
      31         -0.582586        1.000000        0.07930646
      32         -0.582337        1.000000        0.02699337
      33         -0.580369        1.000000        0.03224248
      34         -0.580076        1.000000        0.03628780
      35         -0.578440        1.000000        0.06000188
      36         -0.577987        1.000000        0.08961356
      37         -0.577675        1.000000        0.21647554
      38         -0.576144        1.000000        0.07172763
      39         -0.575209        1.000000        0.03214380
      40         -0.574827        1.000000        0.04675154
      41         -0.574316        1.000000        0.06652535
      42         -0.573214        1.000000        0.14242652
      43         -0.572806        1.000000        0.01013603
      44         -0.571373        1.000000        0.00207281
      45         -0.570790        1.000000        0.05390045
      46         -0.570480        1.000000        0.16667255
      47         -0.569812        1.000000        0.05388097
      48         -0.568011        1.000000        0.28093598
      49         -0.566927        1.000000        0.04665898
      50         -0.564172        1.000000        0.23018669
      51         -0.562723        1.000000        0.28627002
      52         -0.561038        1.000000        0.05227525
      53         -0.560386        1.000000        0.14749232
      54         -0.559964        1.000000        0.22581786
      55         -0.559374        1.000000        0.02839768
      56         -0.557587        1.000000        0.25699763
      57         -0.556621        1.000000        0.12726416
      58         -0.554431        1.000000        0.09660350
      59         -0.551156        1.000000        0.23721554
      60         -0.545922        1.000000        0.25894190
      61         -0.544889        1.000000        0.18970854
      62         -0.541933        1.000000        0.15065817
      63         -0.538446        1.000000        0.18396352
      64         -0.538038        1.000000        0.23378000
      65         -0.473953        1.000000        0.17615485
      66         -0.469955        1.000000        0.17313142
      67         -0.465112        1.000000        0.03759673
      68         -0.464751        1.000000        0.13948503
      69         -0.464189        1.000000        0.16265905
      70         -0.463812        1.000000        0.17685096
      71         -0.461699        1.000000        0.09632012
      72         -0.460868        1.000000        0.02239592
      73         -0.459448        1.000000        0.07487970
      74         -0.458486        1.000000        0.00460860
      75         -0.454240        1.000000        0.02802635
      76         -0.451606        1.000000        0.14843133
      77         -0.450241        1.000000        0.00188575
      78         -0.443153        1.000000        0.00420290
      79         -0.439584        1.000000        0.00158851
      80         -0.410743        1.000000        0.42184387
      81         -0.409901        1.000000        0.42057403
      82         -0.407698        1.000000        0.42237242
      83         -0.406292        1.000000        0.42137073
      84         -0.402421        1.000000        0.42375440
      85         -0.401821        1.000000        0.42214045
      86         -0.400759        1.000000        0.42096614
      87         -0.400112        1.000000        0.42186871
      88         -0.398917        1.000000        0.41956960
      89         -0.398313        1.000000        0.41769915
      90         -0.398197        1.000000        0.42099948
      91         -0.395468        1.000000        0.41973041
      92         -0.390099        1.000000        0.42459310
      93         -0.386858        1.000000        0.42035830
      94         -0.323843        1.000000        0.00065394
      95         -0.315921        1.000000        0.00011977
      96         -0.305522        1.000000        0.00040996
      97         -0.303267        1.000000        0.00012501
      98         -0.299335        1.000000        0.00018943
      99         -0.276640        1.000000        0.00046420
     100         -0.273909        1.000000        0.00057660
     101         -0.273376        1.000000        0.00173060
     102         -0.269729        1.000000        0.00041617
     103         -0.268748        1.000000        0.00066139
     104         -0.266653        1.000000        0.00044180
     105         -0.265242        1.000000        0.00041489
     106         -0.264939        1.000000        0.00053883
     107         -0.263329        1.000000        0.00044944
     108         -0.260754        1.000000        0.00069283
     109         -0.257656        1.000000        0.00036131
     110         -0.256438        1.000000        0.00044172
     111         -0.256062        1.000000        0.00037749
     112         -0.254499        1.000000        0.00086560
     113         -0.253895        1.000000        0.00046040
     114         -0.252564        1.000000        0.00093286
     115         -0.251026        1.000000        0.00035131
     116         -0.247308        1.000000        0.00043101
     117         -0.245709        1.000000        0.00067293
     118         -0.244702        1.000000        0.00049845
     119         -0.244476        1.000000        0.00046382
     120         -0.243351        1.000000        0.00043379
     121         -0.240288        1.000000        0.00049735
     122         -0.239086        1.000000        0.00040130
     123         -0.237191        1.000000        0.00075087
     124         -0.236270        1.000000        0.00055010
     125         -0.235699        1.000000        0.00064393
     126         -0.234113        1.000000        0.00136216
     127         -0.233478        1.000000        0.00087364
     128         -0.232405        1.000000        0.00044327
     129         -0.229411        1.000000        0.00120403
     130         -0.227763        1.000000        0.00069046
     131         -0.225413        1.000000        0.00092705
     132         -0.224052        1.000000        0.00252543
     133         -0.222361        1.000000        0.00139938
     134         -0.220691        1.000000        0.00067866
     135         -0.219020        1.000000        0.00101003
     136         -0.218327        1.000000        0.00079138
     137         -0.216233        1.000000        0.00070727
     138         -0.215483        1.000000        0.00238572
     139         -0.214606        1.000000        0.00153037
     140         -0.214369        1.000000        0.00159974
     141         -0.213409        1.000000        0.00162696
     142         -0.211776        1.000000        0.00196126
     143         -0.211151        1.000000        0.00109404
     144         -0.210146        1.000000        0.00109524
     145         -0.208580        1.000000        0.00181340
     146         -0.208428        1.000000        0.00061250
     147         -0.207772        1.000000        0.00163992
     148         -0.207418        1.000000        0.00112333
     149         -0.205794        1.000000        0.00122317
     150         -0.205456        1.000000        0.00111453
     151         -0.205045        1.000000        0.00112299
     152         -0.203876        1.000000        0.00065512
     153         -0.203271        1.000000        0.00075585
     154         -0.202406        1.000000        0.00132001
     155         -0.201918        1.000000        0.00131063
     156         -0.201170        1.000000        0.00047077
     157         -0.200653        1.000000        0.00061380
     158         -0.199566        1.000000        0.00062742
     159         -0.198541        1.000000        0.00077725
     160         -0.197965        1.000000        0.00204055
     161         -0.197009        1.000000        0.00079104
     162         -0.196589        1.000000        0.00060476
     163         -0.196294        1.000000        0.00151973
     164         -0.195928        1.000000        0.00130360
     165         -0.195080        1.000000        0.00166826
     166         -0.194735        1.000000        0.00068330
     167         -0.193768        1.000000        0.00134826
     168         -0.193492        1.000000        0.00078693
     169         -0.193362        1.000000        0.00054314
     170         -0.192850        1.000000        0.00058231
     171         -0.191806        1.000000        0.00252880
     172         -0.191160        1.000000        0.00055733
     173         -0.190214        1.000000        0.00120185
     174         -0.190079        1.000000        0.00339072
     175         -0.189442        1.000000        0.00109371
     176         -0.188828        1.000000        0.00095274
     177         -0.188175        1.000000        0.00031179
     178         -0.187748        1.000000        0.00026320
     179         -0.187689        1.000000        0.00017341
     180         -0.187342        1.000000        0.00033356
     181         -0.186849        1.000000        0.00067135
     182         -0.186471        1.000000        0.00037121
     183         -0.186117        1.000000        0.00016228
     184         -0.184686        1.000000        0.00135224
     185         -0.184078        1.000000        0.00055414
     186         -0.183198        1.000000        0.00050549
     187         -0.182472        1.000000        0.00022478
     188         -0.182396        1.000000        0.00039697
     189         -0.181912        1.000000        0.00030000
     190         -0.178393        1.000000        0.00032010
     191         -0.176335        1.000000        0.00016089
     192         -0.174275        1.000000        0.00014559
     193         -0.174210        1.000000        0.00004972
     194         -0.172599        1.000000        0.00008980
     195         -0.172077        1.000000        0.00024203
     196         -0.168826        0.000000        0.00015433
     197         -0.167272        0.000000        0.00003199
     198         -0.160679        0.000000        0.00011689
     199         -0.155514        0.000000        0.00019842
     200         -0.155092        0.000000        0.00007109
     201         -0.129183        0.000000        0.00002652
     202         -0.074147        0.000000        0.00052035
     203         -0.073773        0.000000        0.00008390
     204         -0.072840        0.000000        0.00028044
     205         -0.062706        0.000000        0.00084633
     206         -0.055849        0.000000        0.00025016
     207         -0.052998        0.000000        0.00017142
     208         -0.049523        0.000000        0.00022494
     209         -0.046686        0.000000        0.00019202
     210         -0.040753        0.000000        0.00020826
     211         -0.040502        0.000000        0.00021756
     212         -0.038561        0.000000        0.00045104
     213         -0.034739        0.000000        0.00017401
     214         -0.033647        0.000000        0.00024101
     215         -0.030606        0.000000        0.00044592
     216         -0.026412        0.000000        0.00038053
     217         -0.024009        0.000000        0.00010626
     218         -0.022599        0.000000        0.00078817
     219         -0.020635        0.000000        0.00011002
     220         -0.017987        0.000000        0.00018790
     221         -0.017747        0.000000        0.00018105
     222         -0.014872        0.000000        0.00059780
     223         -0.014478        0.000000        0.00037431
     224         -0.011897        0.000000        0.00024089
     225         -0.008741        0.000000        0.00088584
     226          0.088305        0.000000        0.00337618
     227          0.098884        0.000000        0.00283975
     228          0.102780        0.000000        0.00465501
     229          0.103763        0.000000        0.00423155
     230          0.103953        0.000000        0.00389467
     231          0.109000        0.000000        0.00366259
     232          0.115318        0.000000        0.00335113
     233          0.283665        0.000000        0.66148420
     234          0.284817        0.000000        0.65851354
     235          0.286037        0.000000        0.66705578
     236          0.290041        0.000000        0.66005589
     237          0.293168        0.000000        0.65941279
     238          0.294703        0.000000        0.66299196
     239          0.295023        0.000000        0.66154280
     240          0.295166        0.000000        0.66402471
     241          0.296596        0.000000        0.65848262
     242          0.298058        0.000000        0.66132259
     243          0.300357        0.000000        0.66120018
     244          0.301918        0.000000        0.65710105
     245          0.307553        0.000000        0.66239693
     246          0.311190        0.000000        0.66184002
     247          0.316485        0.000000        0.63497151
     248          0.327639        0.000000        0.63347910
     249          0.336288        0.000000        0.63165831
     250          0.337491        0.000000        0.63144691
     251          0.337677        0.000000        0.63174098
     252          0.344754        0.000000        0.63233396
     253          0.349259        0.000000        0.63130689
     254          0.454596        0.000000        0.58397268
     255          0.459539        0.000000        0.58419446
     256          0.462974        0.000000        0.58143497
     257          0.464494        0.000000        0.57926906
     258          0.466160        0.000000        0.58132939
     259          0.467274        0.000000        0.58173427
     260          0.468490        0.000000        0.58432145
     261          0.470005        0.000000        0.58293184
     262          0.470874        0.000000        0.58511176
     263          0.472369        0.000000        0.58248780
     264          0.473060        0.000000        0.58226265
     265          0.473370        0.000000        0.58366813
     266          0.477102        0.000000        0.58387912
     267          0.479768        0.000000        0.58049271
     268          0.550721        0.000000        0.55418914
     269          0.560087        0.000000        0.55227855
     270          0.563958        0.000000        0.55257749
     271          0.566367        0.000000        0.55376766
     272          0.568049        0.000000        0.55280587
     273          0.571885        0.000000        0.55238850
     274          0.575457        0.000000        0.55317663
