# Projected DOS for atomic kind I at iteration step i = 0, E(Fermi) =    -0.171324 a.u.
#     MO Eigenvalue [a.u.]      Occupation                 s                py                pz                px
       1         -0.952921        1.000000        0.00011659        0.00043150        0.00015729        0.00007580
       2         -0.945306        1.000000        0.00015240        0.00021919        0.00041136        0.00010358
       3         -0.942426        1.000000        0.00018431        0.00050972        0.00028085        0.00021962
       4         -0.940424        1.000000        0.00012824        0.00036853        0.00007856        0.00025133
       5         -0.936657        1.000000        0.00018681        0.00033167        0.00032552        0.00019834
       6         -0.936356        1.000000        0.00017248        0.00047239        0.00026617        0.00002931
       7         -0.926083        1.000000        0.00015941        0.00039954        0.00014814        0.00026089
       8         -0.693810        1.000000        0.00070683        0.00025677        0.00013830        0.00004762
       9         -0.690003        1.000000        0.00219213        0.00060465        0.00054839        0.00021036
      10         -0.684865        1.000000        0.00163100        0.00036945        0.00036217        0.00007720
      11         -0.683700        1.000000        0.00214928        0.00023950        0.00028662        0.00033285
      12         -0.683458        1.000000        0.00165832        0.00056275        0.00015151        0.00033558
      13         -0.680384        1.000000        0.00241348        0.00054768        0.00045932        0.00031853
      14         -0.671847        1.000000        0.00161601        0.00031610        0.00024981        0.00019781
      15         -0.640367        1.000000        0.95254083        0.00117488        0.00684973        0.01711369
      16         -0.631104        1.000000        0.95074426        0.00144028        0.01580316        0.00763703
      17         -0.622824        1.000000        0.94024055        0.00642778        0.00254927        0.00937330
      18         -0.619653        1.000000        0.96012762        0.00659574        0.00183806        0.01686196
      19         -0.614886        1.000000        0.91581072        0.00911923        0.00295264        0.00166026
      20         -0.603481        1.000000        0.87337931        0.00328438        0.00745402        0.01464954
      21         -0.597755        1.000000        0.80466846        0.00442347        0.00555219        0.00641259
      22         -0.594224        1.000000        0.83248414        0.00831452        0.00571557        0.00793055
      23         -0.594030        1.000000        0.84065552        0.00567309        0.00537296        0.00916314
      24         -0.592276        1.000000        0.84917184        0.00364475        0.00379423        0.00384132
      25         -0.591212        1.000000        0.76451175        0.00406933        0.00575438        0.00547749
      26         -0.587664        1.000000        0.84495467        0.00729224        0.00791335        0.01071594
      27         -0.586485        1.000000        0.73288798        0.00551757        0.00339009        0.00415917
      28         -0.585401        1.000000        0.68140504        0.00567748        0.00369861        0.00329915
      29         -0.583846        1.000000        0.88194252        0.00459147        0.00355617        0.01068205
      30         -0.582997        1.000000        0.79583427        0.00235460        0.00701574        0.00610935
      31         -0.582420        1.000000        0.76930554        0.00275687        0.00347838        0.00564420
      32         -0.582208        1.000000        0.82790975        0.00181296        0.00366730        0.00628095
      33         -0.580324        1.000000        0.84984447        0.00279411        0.00473484        0.00424156
      34         -0.580057        1.000000        0.83450777        0.00264732        0.00412331        0.00372253
      35         -0.577897        1.000000        0.75243192        0.00338959        0.00289691        0.00322000
      36         -0.577824        1.000000        0.25938854        0.00135305        0.00175459        0.00139471
      37         -0.576943        1.000000        0.75174771        0.00501921        0.00327599        0.00150260
      38         -0.575892        1.000000        0.77135574        0.00255217        0.00185988        0.00196606
      39         -0.574955        1.000000        0.85219001        0.00284152        0.00250637        0.00207175
      40         -0.574744        1.000000        0.82158331        0.00236626        0.00393347        0.00093662
      41         -0.574171        1.000000        0.77816868        0.00143937        0.00301764        0.00362042
      42         -0.573190        1.000000        0.57667102        0.00313889        0.00340417        0.00198645
      43         -0.572514        1.000000        0.92477310        0.00199367        0.00178428        0.00040960
      44         -0.571375        1.000000        0.96086792        0.00229592        0.00047336        0.00241258
      45         -0.570494        1.000000        0.47169526        0.00580075        0.00203056        0.00172743
      46         -0.569629        1.000000        0.69860554        0.00497371        0.00561012        0.00239856
      47         -0.568007        1.000000        0.14334269        0.00276843        0.00079996        0.00059294
      48         -0.567088        1.000000        0.78580770        0.00198477        0.00135857        0.00446118
      49         -0.565591        1.000000        0.82254533        0.00713814        0.00375218        0.00137618
      50         -0.564140        1.000000        0.28519199        0.00124105        0.00191226        0.00097379
      51         -0.562719        1.000000        0.12054154        0.00061188        0.00054773        0.00086104
      52         -0.560392        1.000000        0.40336118        0.00497553        0.00138300        0.00171395
      53         -0.559963        1.000000        0.25243726        0.00505419        0.00094683        0.00072386
      54         -0.559468        1.000000        0.92612649        0.00256371        0.00109686        0.00637459
      55         -0.557586        1.000000        0.19319132        0.00128478        0.00104956        0.00055845
      56         -0.554222        1.000000        0.68764887        0.00440396        0.00118389        0.00094317
      57         -0.553683        1.000000        0.77473090        0.00119633        0.00207906        0.00035766
      58         -0.552344        1.000000        0.74861997        0.00074591        0.00167726        0.00060656
      59         -0.551138        1.000000        0.20659532        0.00637656        0.00239171        0.00161638
      60         -0.545806        1.000000        0.19318186        0.00133544        0.00166593        0.00108385
      61         -0.544886        1.000000        0.34189680        0.00162587        0.00211151        0.00167910
      62         -0.541934        1.000000        0.46208117        0.00072590        0.00137445        0.00045337
      63         -0.538424        1.000000        0.35185358        0.00100578        0.00097697        0.00105215
      64         -0.537831        1.000000        0.23676338        0.00226188        0.00100757        0.00213960
      65         -0.473928        1.000000        0.00293288        0.00186799        0.00107006        0.00025066
      66         -0.469954        1.000000        0.00502276        0.00357989        0.00327287        0.00143159
      67         -0.465117        1.000000        0.12193278        0.03344165        0.04265909        0.01900956
      68         -0.464752        1.000000        0.03284140        0.01023011        0.01302245        0.00511223
      69         -0.464187        1.000000        0.01471797        0.00680405        0.00425574        0.00542702
      70         -0.463805        1.000000        0.00330601        0.00138683        0.00253771        0.00165655
      71         -0.461691        1.000000        0.08023962        0.02337182        0.02134414        0.01701298
      72         -0.460664        1.000000        0.16217165        0.05217659        0.03847502        0.03134075
      73         -0.459418        1.000000        0.11314874        0.03164449        0.02373752        0.02075057
      74         -0.458458        1.000000        0.13306301        0.03342927        0.04253961        0.02826085
      75         -0.454139        1.000000        0.13440005        0.04058429        0.02815932        0.04223138
      76         -0.451577        1.000000        0.03369893        0.00891175        0.00783509        0.00736713
      77         -0.447662        1.000000        0.14831946        0.03593203        0.03959452        0.04716335
      78         -0.443151        1.000000        0.15028224        0.03619473        0.03901394        0.03593838
      79         -0.438487        1.000000        0.15075093        0.04494406        0.04384432        0.00543876
      80         -0.410725        1.000000        0.00189512        0.00383852        0.00040791        0.00072759
      81         -0.409899        1.000000        0.00081223        0.00065542        0.00220412        0.00073028
      82         -0.407698        1.000000        0.00192096        0.00358604        0.00524047        0.00131361
      83         -0.406289        1.000000        0.00268920        0.00627972        0.00383457        0.00256512
      84         -0.402421        1.000000        0.00193941        0.00164616        0.00403465        0.00096586
      85         -0.401817        1.000000        0.00058821        0.00273009        0.00140226        0.00127214
      86         -0.400759        1.000000        0.00133422        0.00476348        0.00201085        0.00132889
      87         -0.400111        1.000000        0.00134596        0.00189384        0.00071895        0.00306765
      88         -0.398917        1.000000        0.00366920        0.00760059        0.00111003        0.00141947
      89         -0.398310        1.000000        0.00210455        0.00194898        0.00285531        0.00310198
      90         -0.398196        1.000000        0.00191675        0.00181495        0.00362953        0.00149894
      91         -0.395468        1.000000        0.00232028        0.00571199        0.00204834        0.00108238
      92         -0.390098        1.000000        0.00077205        0.00131467        0.00112213        0.00082424
      93         -0.386841        1.000000        0.00174738        0.00373752        0.00053974        0.00227994
      94         -0.323849        1.000000        0.02829478        0.01364262        0.23847468        0.69327903
      95         -0.315952        1.000000        0.02624191        0.05058018        0.52069363        0.30494012
      96         -0.305510        1.000000        0.03183202        0.23374609        0.06521662        0.64715687
      97         -0.303277        1.000000        0.01589525        0.21673032        0.05204468        0.62180852
      98         -0.298800        1.000000        0.01573207        0.73876925        0.06100718        0.03906740
      99         -0.276492        1.000000        0.00915171        0.31881313        0.23516437        0.22009791
     100         -0.273732        1.000000        0.01149902        0.27891474        0.27388245        0.26001511
     101         -0.273066        1.000000        0.00907142        0.55463948        0.09948479        0.17958843
     102         -0.269512        1.000000        0.01622735        0.13628871        0.19719776        0.40310129
     103         -0.268426        1.000000        0.01899217        0.40601336        0.22447955        0.17132003
     104         -0.265560        1.000000        0.01402532        0.37117143        0.17466311        0.23396574
     105         -0.264931        1.000000        0.01955493        0.16623443        0.19701427        0.35776966
     106         -0.264691        1.000000        0.00961312        0.43472305        0.12978828        0.23385740
     107         -0.262923        1.000000        0.02112593        0.35187713        0.27821756        0.12157479
     108         -0.257322        1.000000        0.01704771        0.31819181        0.19463732        0.27481500
     109         -0.256895        1.000000        0.01648117        0.25846886        0.33708907        0.17183706
     110         -0.256131        1.000000        0.01756970        0.20093906        0.33801046        0.21990458
     111         -0.255740        1.000000        0.01742530        0.28831055        0.23276233        0.23800003
     112         -0.254158        1.000000        0.01535777        0.24493452        0.32075826        0.24027439
     113         -0.252575        1.000000        0.00588540        0.51573989        0.30528184        0.08539481
     114         -0.251754        1.000000        0.01371958        0.23235473        0.41942390        0.14020082
     115         -0.250358        1.000000        0.01479224        0.25595541        0.36562625        0.17946739
     116         -0.247144        1.000000        0.01278957        0.16590205        0.41309494        0.24194951
     117         -0.245542        1.000000        0.01003478        0.15113612        0.42498479        0.31496298
     118         -0.244403        1.000000        0.01380443        0.20307202        0.22935981        0.37182644
     119         -0.243421        1.000000        0.01281778        0.19311284        0.36245774        0.25021613
     120         -0.242997        1.000000        0.01369618        0.24687238        0.39878073        0.12815456
     121         -0.239911        1.000000        0.01212290        0.22743611        0.38956411        0.23324901
     122         -0.238444        1.000000        0.00659770        0.21088948        0.52040770        0.19054863
     123         -0.236608        1.000000        0.00796212        0.17602066        0.44334684        0.25403609
     124         -0.236013        1.000000        0.00803719        0.22891517        0.30053754        0.34791404
     125         -0.235207        1.000000        0.01256471        0.28105870        0.43031575        0.13116667
     126         -0.233913        1.000000        0.00719339        0.23665692        0.35827969        0.26338646
     127         -0.232357        1.000000        0.00832629        0.39321843        0.31549911        0.14568879
     128         -0.231974        1.000000        0.00979715        0.27337567        0.48379598        0.13453546
     129         -0.229303        1.000000        0.00952782        0.30953526        0.31672908        0.32273165
     130         -0.227525        1.000000        0.00546069        0.26381768        0.29152545        0.34474808
     131         -0.224407        1.000000        0.00348134        0.42643520        0.41088515        0.10425679
     132         -0.223099        1.000000        0.00491063        0.35654069        0.31865609        0.25071315
     133         -0.221927        1.000000        0.00335557        0.31180163        0.39456186        0.21373975
     134         -0.219921        1.000000        0.00728961        0.42119522        0.20050759        0.30967985
     135         -0.218616        1.000000        0.00451288        0.36755258        0.29927855        0.26149165
     136         -0.217955        1.000000        0.00755284        0.36099625        0.18296435        0.40045554
     137         -0.215980        1.000000        0.00501586        0.26366853        0.25284970        0.41899789
     138         -0.215282        1.000000        0.00343519        0.34438026        0.44095230        0.15069631
     139         -0.214268        1.000000        0.00206197        0.31593699        0.51693150        0.13912924
     140         -0.213956        1.000000        0.00226993        0.25393103        0.55404260        0.15727832
     141         -0.212336        1.000000        0.00540845        0.17420995        0.54812609        0.22029069
     142         -0.211675        1.000000        0.00226373        0.43018840        0.30625471        0.23822426
     143         -0.210759        1.000000        0.00265748        0.38742845        0.40893962        0.18111358
     144         -0.209501        1.000000        0.00226965        0.43738594        0.28517640        0.25255720
     145         -0.207904        1.000000        0.00295139        0.50475086        0.23717714        0.21421653
     146         -0.207805        1.000000        0.00163880        0.33691202        0.26246062        0.36495368
     147         -0.207349        1.000000        0.00159937        0.44713199        0.19452248        0.33699465
     148         -0.206403        1.000000        0.00278891        0.41072573        0.22274806        0.33314206
     149         -0.205587        1.000000        0.00237072        0.47807540        0.20398957        0.28957641
     150         -0.205023        1.000000        0.00319365        0.44953045        0.22258038        0.28902987
     151         -0.204515        1.000000        0.00445995        0.23318317        0.26850582        0.46109275
     152         -0.203629        1.000000        0.00281230        0.31459435        0.17893620        0.47433370
     153         -0.202297        1.000000        0.00417520        0.28810546        0.17060346        0.51300699
     154         -0.201945        1.000000        0.00239003        0.32928483        0.33052102        0.28369526
     155         -0.201719        1.000000        0.00378864        0.32495555        0.30510596        0.34058057
     156         -0.201037        1.000000        0.00259024        0.35431067        0.30573336        0.29683318
     157         -0.200342        1.000000        0.00189458        0.28067924        0.33075440        0.36774972
     158         -0.199338        1.000000        0.00258392        0.26548030        0.31338901        0.38498073
     159         -0.198120        1.000000        0.00215536        0.30973167        0.24461060        0.41330023
     160         -0.197881        1.000000        0.00298613        0.28089875        0.27152100        0.42597381
     161         -0.196969        1.000000        0.00101429        0.43996712        0.35125643        0.19081210
     162         -0.196420        1.000000        0.00107815        0.40268552        0.22668065        0.35195771
     163         -0.195978        1.000000        0.00185152        0.37121138        0.32751579        0.27929357
     164         -0.195766        1.000000        0.00157121        0.32145318        0.26451819        0.38375862
     165         -0.194940        1.000000        0.00214140        0.32094865        0.26011624        0.40111865
     166         -0.194230        1.000000        0.00150713        0.48985425        0.28220438        0.20559126
     167         -0.193669        1.000000        0.00275560        0.44127374        0.39435201        0.13516913
     168         -0.193260        1.000000        0.00123072        0.21868142        0.28692186        0.48476069
     169         -0.193008        1.000000        0.00163445        0.43275531        0.23304304        0.31268280
     170         -0.192643        1.000000        0.00074979        0.35406138        0.16829227        0.45118401
     171         -0.191575        1.000000        0.00238900        0.42106022        0.42383169        0.12796036
     172         -0.190366        1.000000        0.00159767        0.31422516        0.39672434        0.26611763
     173         -0.189998        1.000000        0.00320607        0.44718097        0.18657247        0.33456095
     174         -0.189711        1.000000        0.00101621        0.31636467        0.37925350        0.29094909
     175         -0.188942        1.000000        0.00219635        0.35151192        0.33086748        0.28884859
     176         -0.188649        1.000000        0.00121256        0.32598768        0.39918562        0.25710605
     177         -0.188060        1.000000        0.00105237        0.26122464        0.49893838        0.22555904
     178         -0.187648        1.000000        0.00125468        0.20740999        0.10433054        0.66847473
     179         -0.187377        1.000000        0.00070380        0.25451636        0.38310538        0.35563358
     180         -0.187074        1.000000        0.00079235        0.21033069        0.47207250        0.30540724
     181         -0.186116        1.000000        0.00036946        0.51026985        0.24427431        0.23922497
     182         -0.185475        1.000000        0.00069747        0.19109578        0.13030011        0.66565823
     183         -0.184652        1.000000        0.00098706        0.21043821        0.60737193        0.17155860
     184         -0.183390        1.000000        0.00089502        0.40647689        0.35620851        0.21807945
     185         -0.183103        1.000000        0.00227537        0.23777708        0.45266932        0.27978787
     186         -0.182342        1.000000        0.00053544        0.20046013        0.26315026        0.52990852
     187         -0.182066        1.000000        0.00229064        0.34080655        0.12868251        0.48604360
     188         -0.181584        1.000000        0.00064318        0.17484143        0.36820962        0.44706365
     189         -0.179809        1.000000        0.00093774        0.33984655        0.42891396        0.21787397
     190         -0.176110        1.000000        0.00044873        0.37068434        0.42140297        0.20089460
     191         -0.174276        1.000000        0.00022952        0.25251800        0.12302137        0.62127109
     192         -0.173452        1.000000        0.00086987        0.09055140        0.36165558        0.51318600
     193         -0.172084        1.000000        0.00128730        0.17947431        0.46498051        0.24526204
     194         -0.171324        1.000000        0.00036618        0.14553213        0.12612165        0.71661916
     195         -0.168816        0.000000        0.00122456        0.28368097        0.26427181        0.32239257
     196         -0.167304        0.000000        0.00978809        0.10141867        0.58530267        0.24000006
     197         -0.164425        0.000000        0.00214301        0.32656973        0.39061920        0.17311166
     198         -0.158484        0.000000        0.00314058        0.41746738        0.38671487        0.10340947
     199         -0.155454        0.000000        0.01042702        0.08620893        0.19826238        0.66006659
     200         -0.155031        0.000000        0.00520157        0.20307335        0.10491589        0.62190444
     201         -0.129174        0.000000        0.00792195        0.26566525        0.00403765        0.72184773
     202         -0.074049        0.000000        0.01223787        0.06444919        0.12103947        0.06973089
     203         -0.073755        0.000000        0.01191660        0.10047993        0.05788029        0.09564296
     204         -0.071854        0.000000        0.02673559        0.05479582        0.05017087        0.08603818
     205         -0.062687        0.000000        0.02543209        0.10050454        0.07289627        0.07685645
     206         -0.055404        0.000000        0.01699597        0.11089174        0.07090449        0.07953991
     207         -0.052775        0.000000        0.02037989        0.05568110        0.10627085        0.11637180
     208         -0.049416        0.000000        0.01785088        0.14626476        0.02822332        0.09972300
     209         -0.045620        0.000000        0.01130533        0.08986744        0.04565041        0.14719380
     210         -0.040740        0.000000        0.01945410        0.20480021        0.03167470        0.05633999
     211         -0.040492        0.000000        0.02263204        0.04232109        0.17456994        0.06846308
     212         -0.038395        0.000000        0.02050470        0.05416453        0.14330100        0.09092632
     213         -0.034583        0.000000        0.02094977        0.03755330        0.18285385        0.07323084
     214         -0.033636        0.000000        0.02235207        0.03850463        0.19548086        0.06272873
     215         -0.030204        0.000000        0.01705798        0.10210731        0.14815401        0.03779978
     216         -0.026360        0.000000        0.02472245        0.12885618        0.05315910        0.11283148
     217         -0.023999        0.000000        0.02666773        0.03045545        0.25035489        0.02556741
     218         -0.022549        0.000000        0.01838079        0.14514475        0.05059077        0.09839921
     219         -0.018004        0.000000        0.02187020        0.16641223        0.03885217        0.09146378
     220         -0.017859        0.000000        0.02093961        0.16520157        0.02400715        0.10754090
     221         -0.017676        0.000000        0.02356087        0.10571020        0.03353813        0.15996555
     222         -0.014839        0.000000        0.02376262        0.02050154        0.22970357        0.03987941
     223         -0.013976        0.000000        0.02060361        0.19353639        0.06595149        0.03894467
     224         -0.011665        0.000000        0.02661726        0.21653877        0.02308103        0.06889400
     225         -0.005076        0.000000        0.02676949        0.02686525        0.26546080        0.01238858
     226          0.088308        0.000000        0.00002627        0.00071625        0.00044474        0.00002835
     227          0.098888        0.000000        0.00007986        0.00037831        0.00178166        0.00076854
     228          0.102781        0.000000        0.00011785        0.00050718        0.00113958        0.00049052
     229          0.103763        0.000000        0.00006885        0.00127094        0.00024430        0.00111187
     230          0.103953        0.000000        0.00005673        0.00120993        0.00092047        0.00022192
     231          0.109000        0.000000        0.00013458        0.00112375        0.00133228        0.00096915
     232          0.115318        0.000000        0.00004848        0.00096651        0.00077041        0.00063146
     233          0.283729        0.000000        0.00080896        0.01175199        0.00146029        0.00198393
     234          0.284819        0.000000        0.00010446        0.00087033        0.00261983        0.00029414
     235          0.286039        0.000000        0.00210997        0.00018400        0.00334702        0.00890288
     236          0.290041        0.000000        0.00022234        0.00277851        0.00050487        0.00101039
     237          0.293168        0.000000        0.00005896        0.00027279        0.00022644        0.00135429
     238          0.294704        0.000000        0.00053300        0.01067785        0.00602166        0.00293636
     239          0.295023        0.000000        0.00075830        0.00539250        0.00852510        0.00259767
     240          0.295167        0.000000        0.00071731        0.01248035        0.00196468        0.00387409
     241          0.296596        0.000000        0.00042588        0.00542213        0.00242624        0.00012728
     242          0.298059        0.000000        0.00012558        0.00179180        0.00250001        0.00182288
     243          0.300357        0.000000        0.00082200        0.01025239        0.00541034        0.00025778
     244          0.301918        0.000000        0.00015639        0.00051728        0.00215371        0.00080198
     245          0.307555        0.000000        0.00068685        0.00663080        0.00048323        0.00691947
     246          0.311193        0.000000        0.00048717        0.00803299        0.00083151        0.00142059
     247          0.316562        0.000000        0.00087093        0.01186103        0.00285965        0.00260075
     248          0.327639        0.000000        0.00079056        0.00445090        0.00759313        0.00247401
     249          0.336288        0.000000        0.00101428        0.00811752        0.00162891        0.00513721
     250          0.337493        0.000000        0.00145332        0.00310475        0.00473455        0.00732250
     251          0.337677        0.000000        0.00098009        0.01145571        0.00631282        0.00119700
     252          0.344756        0.000000        0.00034223        0.01798160        0.00395005        0.00250223
     253          0.349265        0.000000        0.00086486        0.00962813        0.00091560        0.00670577
     254          0.454596        0.000000        0.00001011        0.00007651        0.00024906        0.00007358
     255          0.459542        0.000000        0.00004321        0.00050823        0.00018681        0.00027213
     256          0.462974        0.000000        0.00004432        0.00022623        0.00018001        0.00020945
     257          0.464494        0.000000        0.00006310        0.00079563        0.00063998        0.00008911
     258          0.466161        0.000000        0.00005795        0.00051805        0.00049960        0.00028563
     259          0.467274        0.000000        0.00003790        0.00037514        0.00029684        0.00016216