# Projected DOS for atomic kind C at iteration step i = 0, E(Fermi) =    -0.172077 a.u.
#     MO Eigenvalue [a.u.]      Occupation                 s                py                pz                px
       1         -0.952918        1.000000        0.05885703        0.00031021        0.00014616        0.04303115
       2         -0.945306        1.000000        0.05737528        0.00092149        0.00917148        0.03311319
       3         -0.942427        1.000000        0.06245966        0.00029085        0.00017734        0.04383092
       4         -0.940424        1.000000        0.05893699        0.00000357        0.01301828        0.03034153
       5         -0.936657        1.000000        0.06208633        0.00023396        0.00090291        0.04295996
       6         -0.936356        1.000000        0.06020781        0.00021120        0.02000967        0.02369990
       7         -0.926082        1.000000        0.06109414        0.00309075        0.01254452        0.02831779
       8         -0.693813        1.000000        0.44282399        0.00002473        0.00001860        0.00105964
       9         -0.690003        1.000000        0.43787888        0.00004029        0.00000616        0.00180370
      10         -0.684866        1.000000        0.44033147        0.00003877        0.00000307        0.00167489
      11         -0.683701        1.000000        0.44160373        0.00000016        0.00003187        0.00077363
      12         -0.683459        1.000000        0.43989226        0.00001725        0.00035220        0.00069063
      13         -0.680384        1.000000        0.43911574        0.00001579        0.00035860        0.00093552
      14         -0.671848        1.000000        0.44111314        0.00008114        0.00064148        0.00083128
      15         -0.640367        1.000000        0.00080240        0.00072648        0.00004664        0.00003968
      16         -0.631081        1.000000        0.00003193        0.00034239        0.00002140        0.00003794
      17         -0.622812        1.000000        0.00005010        0.00003075        0.00032985        0.00002401
      18         -0.619688        1.000000        0.00016731        0.00004434        0.00065736        0.00007825
      19         -0.615429        1.000000        0.00019418        0.00004989        0.00084690        0.00008537
      20         -0.603536        1.000000        0.00017164        0.00200364        0.00183374        0.00028958
      21         -0.597807        1.000000        0.00012239        0.00105840        0.00210770        0.00082255
      22         -0.594685        1.000000        0.00024928        0.00256524        0.00153506        0.00014454
      23         -0.594373        1.000000        0.00029006        0.00045336        0.00069413        0.00017023
      24         -0.593210        1.000000        0.00022671        0.00144711        0.00081740        0.00010484
      25         -0.591257        1.000000        0.00003284        0.00094300        0.00589077        0.00240934
      26         -0.588247        1.000000        0.00004981        0.01183616        0.00239565        0.00014418
      27         -0.587614        1.000000        0.00016841        0.00627206        0.00063891        0.00027333
      28         -0.586131        1.000000        0.00034297        0.00605511        0.00173436        0.00042122
      29         -0.583927        1.000000        0.00061325        0.00040588        0.00110646        0.00018415
      30         -0.583168        1.000000        0.00015462        0.00167754        0.00578632        0.00019342
      31         -0.582586        1.000000        0.00026924        0.00675970        0.00296062        0.00075683
      32         -0.582337        1.000000        0.00028797        0.00329924        0.00074187        0.00011485
      33         -0.580369        1.000000        0.00015771        0.00186621        0.00242432        0.00054138
      34         -0.580076        1.000000        0.00017106        0.00283762        0.00224395        0.00068580
      35         -0.578440        1.000000        0.00010452        0.00494091        0.00415245        0.00012993
      36         -0.577987        1.000000        0.00018914        0.00333016        0.00961879        0.00101169
      37         -0.577675        1.000000        0.00005113        0.00113130        0.03551271        0.00042023
      38         -0.576144        1.000000        0.00045525        0.00714743        0.00248189        0.00047070
      39         -0.575209        1.000000        0.00011539        0.00354748        0.00173063        0.00036384
      40         -0.574827        1.000000        0.00028672        0.00099618        0.00512345        0.00086355
      41         -0.574316        1.000000        0.00008283        0.00334970        0.00368092        0.00118413
      42         -0.573214        1.000000        0.00020528        0.00354954        0.01347358        0.00373289
      43         -0.572806        1.000000        0.00007544        0.00121245        0.00033791        0.00040224
      44         -0.571373        1.000000        0.00000763        0.00020638        0.00006300        0.00001042
      45         -0.570790        1.000000        0.00019520        0.00384785        0.00341969        0.00053725
      46         -0.570480        1.000000        0.00005025        0.01135439        0.00984900        0.00346292
      47         -0.569812        1.000000        0.00003795        0.00579444        0.00330759        0.00019946
      48         -0.568011        1.000000        0.00001719        0.04364137        0.00619116        0.00007596
      49         -0.566927        1.000000        0.00014804        0.00093253        0.00733829        0.00050941
      50         -0.564172        1.000000        0.00010385        0.00302542        0.04229932        0.00059501
      51         -0.562723        1.000000        0.00000711        0.00814100        0.03053127        0.01303719
      52         -0.561038        1.000000        0.00005626        0.00551964        0.00669966        0.00076859
      53         -0.560386        1.000000        0.00017028        0.01791502        0.00996438        0.00248599
      54         -0.559964        1.000000        0.00014342        0.03059972        0.01234274        0.00214134
      55         -0.559374        1.000000        0.00011475        0.00128010        0.00299096        0.00094542
      56         -0.557587        1.000000        0.00042451        0.01123802        0.02618744        0.01320256
      57         -0.556621        1.000000        0.00050249        0.02886020        0.00256746        0.00176608
      58         -0.554431        1.000000        0.00026735        0.00261314        0.01054320        0.00211991
      59         -0.551156        1.000000        0.00037375        0.03325661        0.02013486        0.00293288
      60         -0.545922        1.000000        0.00018217        0.00058937        0.03452991        0.01795949
      61         -0.544889        1.000000        0.00038411        0.04003308        0.00499106        0.00346176
      62         -0.541933        1.000000        0.00051699        0.03593721        0.00168943        0.00311186
      63         -0.538446        1.000000        0.00018370        0.04274121        0.01359542        0.00176252
      64         -0.538038        1.000000        0.00005313        0.05037115        0.00005455        0.00378617
      65         -0.473953        1.000000        0.02527351        0.00408149        0.00191327        0.33515994
      66         -0.469955        1.000000        0.02227152        0.00272233        0.00233611        0.33478494
      67         -0.465112        1.000000        0.00461316        0.00063552        0.00117926        0.07102296
      68         -0.464751        1.000000        0.01756254        0.00283469        0.00490646        0.26253336
      69         -0.464189        1.000000        0.02299764        0.00064092        0.09031277        0.21875409
      70         -0.463812        1.000000        0.02653868        0.00427141        0.06596882        0.26428404
      71         -0.461699        1.000000        0.01303204        0.00021302        0.07471450        0.10802850
      72         -0.460868        1.000000        0.00301159        0.00048088        0.01804002        0.02393856
      73         -0.459448        1.000000        0.01025220        0.00201842        0.06322800        0.08095635
      74         -0.458486        1.000000        0.00061401        0.00048961        0.00137901        0.00670543
      75         -0.454240        1.000000        0.00363166        0.00221013        0.01430905        0.03617802
      76         -0.451606        1.000000        0.01940853        0.02268366        0.08798171        0.17905483
      77         -0.450241        1.000000        0.00015285        0.00070145        0.00090958        0.00214616
      78         -0.443153        1.000000        0.00036789        0.00152357        0.00216157        0.00632791
      79         -0.439584        1.000000        0.00017916        0.00046175        0.00102372        0.00119685
      80         -0.410743        1.000000        0.00000074        0.52540054        0.00174650        0.00456177
      81         -0.409901        1.000000        0.00001588        0.00170310        0.53658001        0.00245359
      82         -0.407698        1.000000        0.00000632        0.00477627        0.51812677        0.00242720
      83         -0.406292        1.000000        0.00000767        0.50982605        0.00345079        0.00376004
      84         -0.402421        1.000000        0.00003545        0.02707478        0.48514929        0.01130074
      85         -0.401821        1.000000        0.00000473        0.51703197        0.01857922        0.00168548
      86         -0.400759        1.000000        0.00003621        0.41970199        0.08099410        0.02801620
      87         -0.400112        1.000000        0.00001446        0.07706276        0.32686244        0.12982709
      88         -0.398917        1.000000        0.00000630        0.51464299        0.00654663        0.00343722
      89         -0.398313        1.000000        0.00005857        0.01490612        0.38526096        0.13678714
      90         -0.398197        1.000000        0.00004125        0.02970317        0.30895435        0.19428648
      91         -0.395468        1.000000        0.00000344        0.49987639        0.00701255        0.02126206
      92         -0.390099        1.000000        0.00002532        0.12625707        0.33275197        0.07341499
      93         -0.386858        1.000000        0.00000812        0.36576170        0.04466148        0.12109182
      94         -0.323843        1.000000        0.00001582        0.00024873        0.00011604        0.00012573
      95         -0.315921        1.000000        0.00001091        0.00005433        0.00010308        0.00001783
      96         -0.305522        1.000000        0.00003968        0.00005391        0.00035588        0.00005423
      97         -0.303267        1.000000        0.00001571        0.00009343        0.00006385        0.00003912
      98         -0.299335        1.000000        0.00004158        0.00014333        0.00009840        0.00006495
      99         -0.276640        1.000000        0.00005101        0.00006899        0.00027809        0.00031576
     100         -0.273909        1.000000        0.00006521        0.00014155        0.00018783        0.00037389
     101         -0.273376        1.000000        0.00013751        0.00059818        0.00010813        0.00134725
     102         -0.269729        1.000000        0.00010180        0.00023923        0.00007452        0.00012221
     103         -0.268748        1.000000        0.00023199        0.00041936        0.00032019        0.00042395
     104         -0.266653        1.000000        0.00013794        0.00057277        0.00008663        0.00011818
     105         -0.265242        1.000000        0.00009409        0.00022756        0.00020884        0.00020206
     106         -0.264939        1.000000        0.00018833        0.00019698        0.00045503        0.00027397
     107         -0.263329        1.000000        0.00036481        0.00052140        0.00041313        0.00015655
     108         -0.260754        1.000000        0.00009140        0.00037894        0.00009299        0.00023338
     109         -0.257656        1.000000        0.00012440        0.00027018        0.00009610        0.00009707
     110         -0.256438        1.000000        0.00015668        0.00024975        0.00029624        0.00017377
     111         -0.256062        1.000000        0.00020112        0.00046349        0.00013894        0.00020417
     112         -0.254499        1.000000        0.00022826        0.00085173        0.00020533        0.00019872
     113         -0.253895        1.000000        0.00008351        0.00064335        0.00017179        0.00014722
     114         -0.252564        1.000000        0.00041360        0.00032418        0.00075724        0.00066591
     115         -0.251026        1.000000        0.00002504        0.00006605        0.00004685        0.00019776
     116         -0.247308        1.000000        0.00020796        0.00024162        0.00013750        0.00019706
     117         -0.245709        1.000000        0.00022646        0.00037049        0.00049788        0.00032249
     118         -0.244702        1.000000        0.00014661        0.00038365        0.00011976        0.00028298
     119         -0.244476        1.000000        0.00030697        0.00014694        0.00018501        0.00011923
     120         -0.243351        1.000000        0.00007857        0.00034847        0.00027974        0.00018558
     121         -0.240288        1.000000        0.00023929        0.00017886        0.00023962        0.00039328
     122         -0.239086        1.000000        0.00015739        0.00036931        0.00030162        0.00044100
     123         -0.237191        1.000000        0.00029729        0.00041305        0.00063343        0.00014375
     124         -0.236270        1.000000        0.00020148        0.00014065        0.00061734        0.00032586
     125         -0.235699        1.000000        0.00007264        0.00011572        0.00034694        0.00040478
     126         -0.234113        1.000000        0.00010157        0.00016165        0.00054093        0.00064516
     127         -0.233478        1.000000        0.00019530        0.00046668        0.00095837        0.00025434
     128         -0.232405        1.000000        0.00007895        0.00008291        0.00016665        0.00044032
     129         -0.229411        1.000000        0.00027872        0.00085507        0.00014258        0.00024147
     130         -0.227763        1.000000        0.00039882        0.00066768        0.00063932        0.00040628
     131         -0.225413        1.000000        0.00021648        0.00031338        0.00044987        0.00068650
     132         -0.224052        1.000000        0.00025549        0.00041743        0.00099994        0.00276750
     133         -0.222361        1.000000        0.00017715        0.00003555        0.00154977        0.00124035
     134         -0.220691        1.000000        0.00012377        0.00027568        0.00032170        0.00016562
     135         -0.219020        1.000000        0.00016817        0.00062596        0.00057793        0.00022166
     136         -0.218327        1.000000        0.00032200        0.00036292        0.00028781        0.00030528
     137         -0.216233        1.000000        0.00042375        0.00024531        0.00030049        0.00043040
     138         -0.215483        1.000000        0.00012536        0.00049918        0.00145234        0.00078255
     139         -0.214606        1.000000        0.00037423        0.00139260        0.00043303        0.00056894
     140         -0.214369        1.000000        0.00071660        0.00102886        0.00077981        0.00041383
     141         -0.213409        1.000000        0.00006670        0.00043866        0.00034796        0.00013908
     142         -0.211776        1.000000        0.00016186        0.00023748        0.00119500        0.00014987
     143         -0.211151        1.000000        0.00048853        0.00065028        0.00052294        0.00023171
     144         -0.210146        1.000000        0.00018038        0.00048140        0.00068984        0.00030054
     145         -0.208580        1.000000        0.00024438        0.00062555        0.00022446        0.00075370
     146         -0.208428        1.000000        0.00015349        0.00036337        0.00032310        0.00007559
     147         -0.207772        1.000000        0.00016387        0.00063938        0.00110278        0.00015494
     148         -0.207418        1.000000        0.00023878        0.00029338        0.00043507        0.00049019
     149         -0.205794        1.000000        0.00022764        0.00085214        0.00020522        0.00015534
     150         -0.205456        1.000000        0.00022750        0.00037940        0.00024509        0.00043162
     151         -0.205045        1.000000        0.00006024        0.00075162        0.00033986        0.00029175
     152         -0.203876        1.000000        0.00020547        0.00016119        0.00007892        0.00027839
     153         -0.203271        1.000000        0.00019976        0.00020907        0.00014392        0.00012902
     154         -0.202406        1.000000        0.00016239        0.00048842        0.00036172        0.00054335
     155         -0.201918        1.000000        0.00012586        0.00005167        0.00028017        0.00036980
     156         -0.201170        1.000000        0.00008514        0.00011335        0.00014580        0.00015913
     157         -0.200653        1.000000        0.00025836        0.00033374        0.00019819        0.00020296
     158         -0.199566        1.000000        0.00020999        0.00018139        0.00034177        0.00015037
     159         -0.198541        1.000000        0.00011847        0.00016582        0.00021629        0.00007388
     160         -0.197965        1.000000        0.00024589        0.00013881        0.00005355        0.00030058
     161         -0.197009        1.000000        0.00062124        0.00111665        0.00039588        0.00047798
     162         -0.196589        1.000000        0.00010254        0.00219915        0.00028455        0.00007710
     163         -0.196294        1.000000        0.00012458        0.00130535        0.00033549        0.00035675
     164         -0.195928        1.000000        0.00010384        0.00021142        0.00032851        0.00004201
     165         -0.195080        1.000000        0.00004676        0.00032241        0.00031486        0.00007232
     166         -0.194735        1.000000        0.00004826        0.00018199        0.00009810        0.00030777
     167         -0.193768        1.000000        0.00004770        0.00032846        0.00031785        0.00041950
     168         -0.193492        1.000000        0.00001711        0.00017200        0.00024631        0.00003460
     169         -0.193362        1.000000        0.00002605        0.00026023        0.00029000        0.00020784
     170         -0.192850        1.000000        0.00003346        0.00013471        0.00007531        0.00009368
     171         -0.191806        1.000000        0.00006319        0.00061786        0.00016464        0.00018760
     172         -0.191160        1.000000        0.00036650        0.00034523        0.00086298        0.00024375
     173         -0.190214        1.000000        0.00016579        0.00035436        0.00040642        0.00008338
     174         -0.190079        1.000000        0.00015335        0.00059099        0.00013763        0.00025037
     175         -0.189442        1.000000        0.00006800        0.00074323        0.00031982        0.00004478
     176         -0.188828        1.000000        0.00007270        0.00023982        0.00008680        0.00014991
     177         -0.188175        1.000000        0.00009112        0.00025911        0.00007895        0.00004336
     178         -0.187748        1.000000        0.00010562        0.00026759        0.00007256        0.00012200
     179         -0.187689        1.000000        0.00008872        0.00061834        0.00010485        0.00007763
     180         -0.187342        1.000000        0.00002696        0.00007328        0.00005643        0.00006127
     181         -0.186849        1.000000        0.00032355        0.00009540        0.00016841        0.00048699
     182         -0.186471        1.000000        0.00037426        0.00015435        0.00083595        0.00027601
     183         -0.186117        1.000000        0.00005012        0.00003465        0.00010128        0.00003078
     184         -0.184686        1.000000        0.00002362        0.00012971        0.00009296        0.00015231
     185         -0.184078        1.000000        0.00031971        0.00047248        0.00082565        0.00020169
     186         -0.183198        1.000000        0.00011646        0.00017160        0.00085552        0.00000876
     187         -0.182472        1.000000        0.00003905        0.00004273        0.00031601        0.00000306
     188         -0.182396        1.000000        0.00003254        0.00002696        0.00015543        0.00003710
     189         -0.181912        1.000000        0.00006279        0.00018211        0.00057000        0.00005566
     190         -0.178393        1.000000        0.00036142        0.00035991        0.00007405        0.00042243
     191         -0.176335        1.000000        0.00001604        0.00002662        0.00007685        0.00005068
     192         -0.174275        1.000000        0.00000380        0.00000385        0.00000443        0.00005243
     193         -0.174210        1.000000        0.00004541        0.00000790        0.00010117        0.00002843
     194         -0.172599        1.000000        0.00001823        0.00002490        0.00002557        0.00004351
     195         -0.172077        1.000000        0.00000841        0.00000723        0.00002534        0.00002339
     196         -0.168826        0.000000        0.00001458        0.00000803        0.00003231        0.00002406
     197         -0.167272        0.000000        0.00001192        0.00002669        0.00004917        0.00000551
     198         -0.160679        0.000000        0.00001475        0.00003980        0.00001515        0.00000582
     199         -0.155514        0.000000        0.00001448        0.00004437        0.00000755        0.00003905
     200         -0.155092        0.000000        0.00000835        0.00001918        0.00000488        0.00001613
     201         -0.129183        0.000000        0.00000633        0.00001238        0.00001989        0.00000905
     202         -0.074147        0.000000        0.00007203        0.00010875        0.00003561        0.00016663
     203         -0.073773        0.000000        0.00002058        0.00002391        0.00004303        0.00002309
     204         -0.072840        0.000000        0.00005088        0.00000635        0.00004408        0.00003151
     205         -0.062706        0.000000        0.00007780        0.00000898        0.00014747        0.00016572
     206         -0.055849        0.000000        0.00002046        0.00004284        0.00001568        0.00002153
     207         -0.052998        0.000000        0.00005955        0.00000930        0.00006955        0.00002594
     208         -0.049523        0.000000        0.00001319        0.00008969        0.00003015        0.00007799
     209         -0.046686        0.000000        0.00001005        0.00001593        0.00001469        0.00001788
     210         -0.040753        0.000000        0.00001327        0.00003499        0.00003019        0.00003937
     211         -0.040502        0.000000        0.00004538        0.00008271        0.00001000        0.00003979
     212         -0.038561        0.000000        0.00001510        0.00002710        0.00002611        0.00005379
     213         -0.034739        0.000000        0.00001009        0.00001256        0.00001089        0.00000484
     214         -0.033647        0.000000        0.00003052        0.00001007        0.00006881        0.00011367
     215         -0.030606        0.000000        0.00001436        0.00000063        0.00000544        0.00005023
     216         -0.026412        0.000000        0.00001646        0.00000762        0.00000632        0.00001282
     217         -0.024009        0.000000        0.00004980        0.00002099        0.00009820        0.00003070
     218         -0.022599        0.000000        0.00000457        0.00000732        0.00009614        0.00007632
     219         -0.020635        0.000000        0.00005335        0.00003384        0.00003062        0.00004730
     220         -0.017987        0.000000        0.00003414        0.00004386        0.00002556        0.00003068
     221         -0.017747        0.000000        0.00001180        0.00004127        0.00005038        0.00002395
     222         -0.014872        0.000000        0.00001262        0.00000140        0.00002816        0.00013844
     223         -0.014478        0.000000        0.00000943        0.00001127        0.00005255        0.00004802
     224         -0.011897        0.000000        0.00011500        0.00003863        0.00017144        0.00011623
     225         -0.008741        0.000000        0.00004212        0.00003420        0.00002143        0.00010107
     226          0.088305        0.000000        0.07960987        0.00360580        0.00193327        0.55011474
     227          0.098884        0.000000        0.07876401        0.01041014        0.12001640        0.42802816
     228          0.102780        0.000000        0.07880216        0.00357868        0.00547192        0.54034070
     229          0.103763        0.000000        0.07867657        0.00017056        0.16179057        0.39199389
     230          0.103953        0.000000        0.08150474        0.00294227        0.01011178        0.53382900
     231          0.109000        0.000000        0.07916487        0.00249712        0.24597267        0.30406948
     232          0.115318        0.000000        0.08111471        0.03722540        0.15673493        0.35521325
     233          0.283665        0.000000        0.00014043        0.00543349        0.00000813        0.00006921
     234          0.284817        0.000000        0.00000050        0.00005929        0.00588372        0.00000427
     235          0.286037        0.000000        0.00000768        0.00544892        0.00059213        0.00006038
     236          0.290041        0.000000        0.00003687        0.00438220        0.00065676        0.00001986
     237          0.293168        0.000000        0.00003132        0.00044910        0.00329519        0.00179634
     238          0.294703        0.000000        0.00009362        0.00408275        0.00157442        0.00054457
     239          0.295023        0.000000        0.00002144        0.00208342        0.00251792        0.00125739
     240          0.295166        0.000000        0.00005492        0.00516529        0.00085421        0.00008394
     241          0.296596        0.000000        0.00015020        0.00075483        0.00218431        0.00275711
     242          0.298058        0.000000        0.00004156        0.00028102        0.00758494        0.00004226
     243          0.300357        0.000000        0.00000042        0.00541065        0.00063621        0.00017615
     244          0.301918        0.000000        0.00034976        0.00174909        0.00563183        0.00000051
     245          0.307553        0.000000        0.00000064        0.00313554        0.00155115        0.00176848
     246          0.311190        0.000000        0.00000246        0.00332622        0.00336488        0.00049288
     247          0.316485        0.000000        0.00473728        0.00012581        0.00000211        0.00002174
     248          0.327639        0.000000        0.00456737        0.00018114        0.00003902        0.00003366
     249          0.336288        0.000000        0.00533342        0.00001850        0.00007024        0.00029714
     250          0.337491        0.000000        0.00507068        0.00008496        0.00019029        0.00022373
     251          0.337677        0.000000        0.00497229        0.00000852        0.00019747        0.00006708
     252          0.344754        0.000000        0.00488687        0.00088317        0.00011161        0.00009342
     253          0.349259        0.000000        0.00523117        0.00000363        0.00001509        0.00009160
     254          0.454596        0.000000        0.00004771        0.08924768        0.30024145        0.00294081
     255          0.459539        0.000000        0.00002119        0.30249197        0.09074214        0.00096637
     256          0.462974        0.000000        0.00009260        0.36684531        0.02370071        0.00279549
     257          0.464494        0.000000        0.00012649        0.01351906        0.37782031        0.00130048
     258          0.466160        0.000000        0.00003689        0.38251823        0.00789326        0.00340633
     259          0.467274        0.000000        0.00061895        0.01855391        0.36264263        0.00980553