# Projected DOS for atomic kind C at iteration step i = 0, E(Fermi) =    -0.171324 a.u.
#     MO Eigenvalue [a.u.]      Occupation                 s                py                pz                px
       1         -0.952921        1.000000        0.05885637        0.00031018        0.00014619        0.04303120
       2         -0.945306        1.000000        0.05737512        0.00092150        0.00917147        0.03311338
       3         -0.942426        1.000000        0.06246007        0.00029087        0.00017735        0.04383095
       4         -0.940424        1.000000        0.05893697        0.00000357        0.01301827        0.03034155
       5         -0.936657        1.000000        0.06208648        0.00023396        0.00090291        0.04296000
       6         -0.936356        1.000000        0.06020780        0.00021120        0.02000967        0.02369991
       7         -0.926083        1.000000        0.06109335        0.00309081        0.01254451        0.02831767
       8         -0.693810        1.000000        0.44284454        0.00002495        0.00001859        0.00106001
       9         -0.690003        1.000000        0.43788157        0.00004028        0.00000616        0.00180371
      10         -0.684865        1.000000        0.44033241        0.00003877        0.00000307        0.00167492
      11         -0.683700        1.000000        0.44161234        0.00000015        0.00003181        0.00077332
      12         -0.683458        1.000000        0.43989382        0.00001724        0.00035221        0.00069059
      13         -0.680384        1.000000        0.43911613        0.00001579        0.00035860        0.00093550
      14         -0.671847        1.000000        0.44112802        0.00008121        0.00064154        0.00083101
      15         -0.640367        1.000000        0.00080378        0.00072560        0.00004666        0.00003962
      16         -0.631104        1.000000        0.00003186        0.00034091        0.00002137        0.00003794
      17         -0.622824        1.000000        0.00005003        0.00003011        0.00032891        0.00002391
      18         -0.619653        1.000000        0.00016639        0.00004371        0.00064764        0.00007776
      19         -0.614886        1.000000        0.00019227        0.00004660        0.00088294        0.00008628
      20         -0.603481        1.000000        0.00016872        0.00196794        0.00186563        0.00028986
      21         -0.597755        1.000000        0.00012395        0.00099280        0.00204987        0.00084928
      22         -0.594224        1.000000        0.00021587        0.00162511        0.00061682        0.00009666
      23         -0.594030        1.000000        0.00037761        0.00065702        0.00150142        0.00012930
      24         -0.592276        1.000000        0.00017628        0.00162479        0.00179151        0.00034953
      25         -0.591212        1.000000        0.00002863        0.00079393        0.00557268        0.00225890
      26         -0.587664        1.000000        0.00014355        0.00169494        0.00144644        0.00026262
      27         -0.586485        1.000000        0.00030402        0.00857953        0.00206520        0.00039331
      28         -0.585401        1.000000        0.00012612        0.01519697        0.00146137        0.00019245
      29         -0.583846        1.000000        0.00060764        0.00050721        0.00164794        0.00020479
      30         -0.582997        1.000000        0.00016634        0.00398148        0.00479021        0.00033599
      31         -0.582420        1.000000        0.00035149        0.00635839        0.00257661        0.00044577
      32         -0.582208        1.000000        0.00019530        0.00557539        0.00117223        0.00034404
      33         -0.580324        1.000000        0.00016046        0.00178446        0.00239737        0.00049490
      34         -0.580057        1.000000        0.00018327        0.00299505        0.00231951        0.00068709
      35         -0.577897        1.000000        0.00021229        0.00474196        0.00417420        0.00094925
      36         -0.577824        1.000000        0.00004623        0.00315398        0.03758956        0.00045238
      37         -0.576943        1.000000        0.00012684        0.00259429        0.00868285        0.00033412
      38         -0.575892        1.000000        0.00042288        0.00701623        0.00229533        0.00040805
      39         -0.574955        1.000000        0.00003078        0.00451083        0.00145068        0.00012620
      40         -0.574744        1.000000        0.00031764        0.00105148        0.00492702        0.00104587
      41         -0.574171        1.000000        0.00008702        0.00310865        0.00396944        0.00127473
      42         -0.573190        1.000000        0.00022528        0.00357278        0.01350785        0.00380248
      43         -0.572514        1.000000        0.00006020        0.00149116        0.00018458        0.00024041
      44         -0.571375        1.000000        0.00000511        0.00017781        0.00008786        0.00001495
      45         -0.570494        1.000000        0.00003036        0.01210965        0.01069384        0.00369666
      46         -0.569629        1.000000        0.00014863        0.00666466        0.00473880        0.00012073
      47         -0.568007        1.000000        0.00002702        0.04351611        0.00645624        0.00004306
      48         -0.567088        1.000000        0.00018019        0.00109944        0.00778573        0.00069093
      49         -0.565591        1.000000        0.00005751        0.00344122        0.00098050        0.00022291
      50         -0.564140        1.000000        0.00010255        0.00326012        0.04172316        0.00059978
      51         -0.562719        1.000000        0.00000744        0.00813694        0.03052097        0.01301783
      52         -0.560392        1.000000        0.00010888        0.01932925        0.01568646        0.00313138
      53         -0.559963        1.000000        0.00011694        0.03083832        0.01450877        0.00236563
      54         -0.559468        1.000000        0.00010461        0.00086755        0.00231533        0.00048158
      55         -0.557586        1.000000        0.00042415        0.01123302        0.02619060        0.01319830
      56         -0.554222        1.000000        0.00030021        0.00320162        0.00758911        0.00213013
      57         -0.553683        1.000000        0.00021799        0.00915081        0.00294590        0.00113516
      58         -0.552344        1.000000        0.00038663        0.01601393        0.00176764        0.00135782
      59         -0.551138        1.000000        0.00037333        0.03312177        0.02008333        0.00291047
      60         -0.545806        1.000000        0.00019133        0.00052212        0.03383976        0.01797050
      61         -0.544886        1.000000        0.00038342        0.03993675        0.00506131        0.00348092
      62         -0.541934        1.000000        0.00051732        0.03593057        0.00168590        0.00311305
      63         -0.538424        1.000000        0.00018484        0.04274864        0.01356175        0.00175466
      64         -0.537831        1.000000        0.00005693        0.04981755        0.00004879        0.00350051
      65         -0.473928        1.000000        0.02526451        0.00414823        0.00190494        0.33514295
      66         -0.469954        1.000000        0.02227326        0.00272241        0.00233588        0.33480092
      67         -0.465117        1.000000        0.00449243        0.00061834        0.00115091        0.06917798
      68         -0.464752        1.000000        0.01768990        0.00285292        0.00494051        0.26442579
      69         -0.464187        1.000000        0.02300649        0.00063755        0.09038472        0.21882725
      70         -0.463805        1.000000        0.02656498        0.00428345        0.06593962        0.26447641
      71         -0.461691        1.000000        0.01338743        0.00022603        0.07690400        0.11087037
      72         -0.460664        1.000000        0.00312432        0.00055147        0.01886501        0.02476280
      73         -0.459418        1.000000        0.00974089        0.00193476        0.06001745        0.07694983
      74         -0.458458        1.000000        0.00063116        0.00049033        0.00151804        0.00679003
      75         -0.454139        1.000000        0.00392408        0.00249262        0.01536327        0.03857670
      76         -0.451577        1.000000        0.01921178        0.02228249        0.08773100        0.17802774
      77         -0.447662        1.000000        0.00004156        0.00080493        0.00021004        0.00064232
      78         -0.443151        1.000000        0.00036906        0.00152573        0.00216083        0.00633954
      79         -0.438487        1.000000        0.00017411        0.00066127        0.00094410        0.00107340
      80         -0.410725        1.000000        0.00000080        0.52481414        0.00209253        0.00462039
      81         -0.409899        1.000000        0.00001581        0.00203876        0.53623122        0.00241323
      82         -0.407698        1.000000        0.00000631        0.00482286        0.51808455        0.00242395
      83         -0.406289        1.000000        0.00000773        0.50977302        0.00349447        0.00376489
      84         -0.402421        1.000000        0.00003546        0.02710310        0.48511892        0.01130116
      85         -0.401817        1.000000        0.00000472        0.51702924        0.01856718        0.00169059
      86         -0.400759        1.000000        0.00003622        0.41956740        0.08109642        0.02805051
      87         -0.400111        1.000000        0.00001448        0.07716141        0.32679439        0.12979600
      88         -0.398917        1.000000        0.00000628        0.51465389        0.00654167        0.00343415
      89         -0.398310        1.000000        0.00005857        0.01515443        0.38379507        0.13791768
      90         -0.398196        1.000000        0.00004153        0.02944430        0.31044440        0.19314084
      91         -0.395468        1.000000        0.00000344        0.49988033        0.00701123        0.02126043
      92         -0.390098        1.000000        0.00002536        0.12622277        0.33275959        0.07343618
      93         -0.386841        1.000000        0.00000836        0.36579202        0.04463733        0.12110952
      94         -0.323849        1.000000        0.00001581        0.00024828        0.00011597        0.00012581
      95         -0.315952        1.000000        0.00001090        0.00005432        0.00010303        0.00001776
      96         -0.305510        1.000000        0.00003971        0.00005325        0.00035672        0.00005441
      97         -0.303277        1.000000        0.00001579        0.00009305        0.00006474        0.00003903
      98         -0.298800        1.000000        0.00004267        0.00014361        0.00009827        0.00006550
      99         -0.276492        1.000000        0.00005586        0.00006509        0.00028287        0.00031861
     100         -0.273732        1.000000        0.00011781        0.00026960        0.00015401        0.00081014
     101         -0.273066        1.000000        0.00008122        0.00048259        0.00012983        0.00095311
     102         -0.269512        1.000000        0.00009869        0.00024971        0.00006876        0.00011247
     103         -0.268426        1.000000        0.00020792        0.00026417        0.00033588        0.00034221
     104         -0.265560        1.000000        0.00020346        0.00056013        0.00011954        0.00026329
     105         -0.264931        1.000000        0.00014825        0.00019254        0.00056490        0.00025612
     106         -0.264691        1.000000        0.00011648        0.00058545        0.00007845        0.00017962
     107         -0.262923        1.000000        0.00038652        0.00062458        0.00041891        0.00012515
     108         -0.257322        1.000000        0.00014634        0.00030481        0.00007353        0.00010076
     109         -0.256895        1.000000        0.00006116        0.00004693        0.00012743        0.00023398
     110         -0.256131        1.000000        0.00030909        0.00029374        0.00021579        0.00018154
     111         -0.255740        1.000000        0.00006427        0.00043513        0.00021817        0.00017177
     112         -0.254158        1.000000        0.00020672        0.00081032        0.00028209        0.00020613
     113         -0.252575        1.000000        0.00033531        0.00048593        0.00079959        0.00052752
     114         -0.251754        1.000000        0.00012072        0.00046043        0.00006040        0.00026053
     115         -0.250358        1.000000        0.00004431        0.00008894        0.00004825        0.00025874
     116         -0.247144        1.000000        0.00021820        0.00026941        0.00014256        0.00020847
     117         -0.245542        1.000000        0.00027254        0.00042043        0.00051099        0.00025336
     118         -0.244403        1.000000        0.00027961        0.00012374        0.00019366        0.00014772
     119         -0.243421        1.000000        0.00018340        0.00046490        0.00018299        0.00019572
     120         -0.242997        1.000000        0.00001822        0.00025818        0.00024077        0.00030884
     121         -0.239911        1.000000        0.00025974        0.00027851        0.00024827        0.00055432
     122         -0.238444        1.000000        0.00012363        0.00027257        0.00024695        0.00024796
     123         -0.236608        1.000000        0.00024016        0.00042071        0.00059853        0.00017207
     124         -0.236013        1.000000        0.00027266        0.00010185        0.00083272        0.00029667
     125         -0.235207        1.000000        0.00005990        0.00015145        0.00032381        0.00039884
     126         -0.233913        1.000000        0.00014529        0.00017239        0.00041857        0.00060061
     127         -0.232357        1.000000        0.00019754        0.00045205        0.00096546        0.00032664
     128         -0.231974        1.000000        0.00009206        0.00011667        0.00018405        0.00042373
     129         -0.229303        1.000000        0.00029311        0.00089850        0.00015377        0.00024467
     130         -0.227525        1.000000        0.00039228        0.00060061        0.00074497        0.00046918
     131         -0.224407        1.000000        0.00035339        0.00036217        0.00088936        0.00266081
     132         -0.223099        1.000000        0.00011038        0.00027807        0.00075843        0.00091554
     133         -0.221927        1.000000        0.00016019        0.00010299        0.00138537        0.00097879
     134         -0.219921        1.000000        0.00008050        0.00031286        0.00011443        0.00020977
     135         -0.218616        1.000000        0.00017205        0.00060334        0.00058136        0.00021536
     136         -0.217955        1.000000        0.00031161        0.00036056        0.00024589        0.00025935
     137         -0.215980        1.000000        0.00049811        0.00025288        0.00035145        0.00042953
     138         -0.215282        1.000000        0.00008964        0.00061581        0.00139993        0.00077153
     139         -0.214268        1.000000        0.00066872        0.00113774        0.00053656        0.00031320
     140         -0.213956        1.000000        0.00046389        0.00097799        0.00083129        0.00067586
     141         -0.212336        1.000000        0.00006526        0.00048867        0.00037058        0.00019045
     142         -0.211675        1.000000        0.00015159        0.00027298        0.00117464        0.00011564
     143         -0.210759        1.000000        0.00049346        0.00083180        0.00069398        0.00014479
     144         -0.209501        1.000000        0.00027965        0.00072301        0.00075231        0.00027684
     145         -0.207904        1.000000        0.00029824        0.00069768        0.00024759        0.00067840
     146         -0.207805        1.000000        0.00008593        0.00019496        0.00075333        0.00005260
     147         -0.207349        1.000000        0.00020167        0.00039489        0.00034728        0.00045778
     148         -0.206403        1.000000        0.00011771        0.00043876        0.00045742        0.00072655
     149         -0.205587        1.000000        0.00017055        0.00075597        0.00023164        0.00010659
     150         -0.205023        1.000000        0.00023107        0.00043357        0.00017062        0.00038468
     151         -0.204515        1.000000        0.00007035        0.00061774        0.00031728        0.00007910
     152         -0.203629        1.000000        0.00024422        0.00017393        0.00010690        0.00028132
     153         -0.202297        1.000000        0.00015618        0.00038597        0.00027242        0.00057202
     154         -0.201945        1.000000        0.00007349        0.00019296        0.00013498        0.00040629
     155         -0.201719        1.000000        0.00019683        0.00009859        0.00036018        0.00014517
     156         -0.201037        1.000000        0.00011428        0.00010640        0.00015930        0.00017307
     157         -0.200342        1.000000        0.00019475        0.00040940        0.00010394        0.00016202
     158         -0.199338        1.000000        0.00020627        0.00018747        0.00035448        0.00012577
     159         -0.198120        1.000000        0.00012265        0.00011290        0.00015047        0.00011085
     160         -0.197881        1.000000        0.00023722        0.00014496        0.00014394        0.00026576
     161         -0.196969        1.000000        0.00063486        0.00122447        0.00039357        0.00046683
     162         -0.196420        1.000000        0.00006311        0.00286256        0.00027183        0.00010466
     163         -0.195978        1.000000        0.00019941        0.00043716        0.00039597        0.00036854
     164         -0.195766        1.000000        0.00008073        0.00024699        0.00027096        0.00002833
     165         -0.194940        1.000000        0.00004930        0.00030890        0.00036016        0.00016335
     166         -0.194230        1.000000        0.00003389        0.00013705        0.00006566        0.00019018
     167         -0.193669        1.000000        0.00004690        0.00029676        0.00027303        0.00038844
     168         -0.193260        1.000000        0.00002846        0.00039369        0.00046642        0.00026874
     169         -0.193008        1.000000        0.00003031        0.00003525        0.00013038        0.00004112
     170         -0.192643        1.000000        0.00003822        0.00021577        0.00003063        0.00008559
     171         -0.191575        1.000000        0.00007276        0.00070615        0.00013034        0.00018423
     172         -0.190366        1.000000        0.00029826        0.00040940        0.00081035        0.00016937
     173         -0.189998        1.000000        0.00013934        0.00057307        0.00014886        0.00024019
     174         -0.189711        1.000000        0.00025087        0.00060886        0.00079115        0.00005541
     175         -0.188942        1.000000        0.00001700        0.00039865        0.00014751        0.00008627
     176         -0.188649        1.000000        0.00008385        0.00023359        0.00007325        0.00017767
     177         -0.188060        1.000000        0.00008759        0.00021964        0.00007677        0.00002751
     178         -0.187648        1.000000        0.00006344        0.00038086        0.00005657        0.00007065
     179         -0.187377        1.000000        0.00003603        0.00051814        0.00011637        0.00004511
     180         -0.187074        1.000000        0.00002995        0.00012461        0.00012289        0.00007039
     181         -0.186116        1.000000        0.00002585        0.00003621        0.00003479        0.00001780
     182         -0.185475        1.000000        0.00073461        0.00008583        0.00111274        0.00030638
     183         -0.184652        1.000000        0.00003110        0.00013296        0.00010614        0.00015497
     184         -0.183390        1.000000        0.00013623        0.00007503        0.00003800        0.00026177
     185         -0.183103        1.000000        0.00015382        0.00009993        0.00116727        0.00007091
     186         -0.182342        1.000000        0.00001823        0.00002681        0.00011128        0.00003595
     187         -0.182066        1.000000        0.00010650        0.00020165        0.00059991        0.00003188
     188         -0.181584        1.000000        0.00010384        0.00018052        0.00037450        0.00005650
     189         -0.179809        1.000000        0.00013912        0.00025350        0.00019964        0.00025083
     190         -0.176110        1.000000        0.00037961        0.00051429        0.00011221        0.00052399
     191         -0.174276        1.000000        0.00000375        0.00000559        0.00000464        0.00005830
     192         -0.173452        1.000000        0.00005037        0.00005448        0.00003692        0.00012673
     193         -0.172084        1.000000        0.00001019        0.00000365        0.00002246        0.00001810
     194         -0.171324        1.000000        0.00003215        0.00000571        0.00009721        0.00001717
     195         -0.168816        0.000000        0.00001438        0.00000807        0.00003257        0.00002411
     196         -0.167304        0.000000        0.00001254        0.00002761        0.00004950        0.00000546
     197         -0.164425        0.000000        0.00001348        0.00002606        0.00001082        0.00001663
     198         -0.158484        0.000000        0.00000890        0.00004046        0.00000880        0.00000780
     199         -0.155454        0.000000        0.00001515        0.00003998        0.00000784        0.00003372
     200         -0.155031        0.000000        0.00000832        0.00001756        0.00000642        0.00002030
     201         -0.129174        0.000000        0.00000635        0.00001241        0.00001991        0.00000907
     202         -0.074049        0.000000        0.00007059        0.00009212        0.00002508        0.00015417
     203         -0.073755        0.000000        0.00001666        0.00003157        0.00004228        0.00001707
     204         -0.071854        0.000000        0.00005806        0.00001713        0.00005702        0.00005148
     205         -0.062687        0.000000        0.00007754        0.00000914        0.00014697        0.00016485
     206         -0.055404        0.000000        0.00001874        0.00004199        0.00001676        0.00002615
     207         -0.052775        0.000000        0.00006114        0.00000819        0.00006753        0.00002563
     208         -0.049416        0.000000        0.00001283        0.00009070        0.00003041        0.00007668
     209         -0.045620        0.000000        0.00000945        0.00001612        0.00001451        0.00001677
     210         -0.040740        0.000000        0.00001335        0.00003446        0.00003033        0.00003953
     211         -0.040492        0.000000        0.00004520        0.00008332        0.00001004        0.00003989
     212         -0.038395        0.000000        0.00001468        0.00002649        0.00002552        0.00005394
     213         -0.034583        0.000000        0.00000972        0.00001241        0.00001068        0.00000463
     214         -0.033636        0.000000        0.00003039        0.00001012        0.00006900        0.00011326
     215         -0.030204        0.000000        0.00001278        0.00000116        0.00000707        0.00004905
     216         -0.026360        0.000000        0.00001656        0.00000752        0.00000680        0.00001261
     217         -0.023999        0.000000        0.00005115        0.00002007        0.00009974        0.00002859
     218         -0.022549        0.000000        0.00000443        0.00000721        0.00009460        0.00007629
     219         -0.018004        0.000000        0.00004901        0.00004314        0.00002477        0.00002142
     220         -0.017859        0.000000        0.00003989        0.00003327        0.00002562        0.00004985
     221         -0.017676        0.000000        0.00001250        0.00004312        0.00005218        0.00002876
     222         -0.014839        0.000000        0.00001250        0.00000225        0.00002308        0.00013915
     223         -0.013976        0.000000        0.00000626        0.00000943        0.00005751        0.00004924
     224         -0.011665        0.000000        0.00011673        0.00003976        0.00017366        0.00011467
     225         -0.005076        0.000000        0.00004898        0.00003433        0.00002387        0.00012097
     226          0.088308        0.000000        0.07961114        0.00360548        0.00193303        0.55009065
     227          0.098888        0.000000        0.07875541        0.01040991        0.12001670        0.42801406
     228          0.102781        0.000000        0.07880157        0.00357832        0.00547407        0.54033689
     229          0.103763        0.000000        0.07867618        0.00017063        0.16178764        0.39199560
     230          0.103953        0.000000        0.08150416        0.00294228        0.01011224        0.53382773
     231          0.109000        0.000000        0.07916467        0.00249710        0.24597212        0.30406959
     232          0.115318        0.000000        0.08111286        0.03722448        0.15673276        0.35521543
     233          0.283729        0.000000        0.00014436        0.00544703        0.00000702        0.00006969
     234          0.284819        0.000000        0.00000040        0.00005051        0.00588538        0.00000445
     235          0.286039        0.000000        0.00000771        0.00544852        0.00059219        0.00006029
     236          0.290041        0.000000        0.00003689        0.00438192        0.00065665        0.00001987
     237          0.293168        0.000000        0.00003131        0.00044912        0.00329516        0.00179632
     238          0.294704        0.000000        0.00009342        0.00407478        0.00157760        0.00054736
     239          0.295023        0.000000        0.00002157        0.00209400        0.00251125        0.00125373
     240          0.295167        0.000000        0.00005501        0.00516302        0.00085685        0.00008483
     241          0.296596        0.000000        0.00015020        0.00075483        0.00218427        0.00275711
     242          0.298059        0.000000        0.00004154        0.00028042        0.00758611        0.00004224
     243          0.300357        0.000000        0.00000042        0.00541064        0.00063621        0.00017615
     244          0.301918        0.000000        0.00034978        0.00174922        0.00563169        0.00000051
     245          0.307555        0.000000        0.00000063        0.00313041        0.00155422        0.00176973
     246          0.311193        0.000000        0.00000248        0.00333128        0.00336164        0.00049125
     247          0.316562        0.000000        0.00473067        0.00013060        0.00000220        0.00002175
     248          0.327639        0.000000        0.00456702        0.00018109        0.00003903        0.00003366
     249          0.336288        0.000000        0.00533350        0.00001847        0.00007025        0.00029719
     250          0.337493        0.000000        0.00507031        0.00008503        0.00019056        0.00022353
     251          0.337677        0.000000        0.00497231        0.00000855        0.00019721        0.00006722
     252          0.344756        0.000000        0.00488669        0.00088328        0.00011160        0.00009341
     253          0.349265        0.000000        0.00523021        0.00000363        0.00001512        0.00009163
     254          0.454596        0.000000        0.00004772        0.08918994        0.30029827        0.00294048
     255          0.459542        0.000000        0.00002121        0.30254023        0.09068474        0.00096714
     256          0.462974        0.000000        0.00009261        0.36684829        0.02369724        0.00279561
     257          0.464494        0.000000        0.00012650        0.01351133        0.37782722        0.00129991
     258          0.466161        0.000000        0.00003689        0.38250060        0.00790790        0.00340765
     259          0.467274        0.000000        0.00061900        0.01857080        0.36262538        0.00980550