# Projected DOS for atomic kind N at iteration step i = 0, E(Fermi) =    -0.172077 a.u.
#     MO Eigenvalue [a.u.]      Occupation                 s                py                pz                px
       1         -0.952918        1.000000        0.61487043        0.00024071        0.00001485        0.00009703
       2         -0.945306        1.000000        0.61476024        0.00004659        0.00001429        0.00023584
       3         -0.942427        1.000000        0.61147431        0.00014766        0.00000092        0.00004794
       4         -0.940424        1.000000        0.61384831        0.00016796        0.00035802        0.00001422
       5         -0.936657        1.000000        0.61274590        0.00005595        0.00011325        0.00005395
       6         -0.936356        1.000000        0.61321200        0.00000028        0.00003036        0.00037173
       7         -0.926082        1.000000        0.61321567        0.00002461        0.00015371        0.00001553
       8         -0.693813        1.000000        0.01613953        0.00272882        0.00067279        0.19247957
       9         -0.690003        1.000000        0.01758704        0.00182034        0.00077709        0.18813307
      10         -0.684866        1.000000        0.01733111        0.00100554        0.00434497        0.18427461
      11         -0.683701        1.000000        0.01506282        0.00335606        0.03681827        0.15839887
      12         -0.683459        1.000000        0.01524373        0.00042819        0.06127285        0.13524481
      13         -0.680384        1.000000        0.01620033        0.00083012        0.08158093        0.11183345
      14         -0.671848        1.000000        0.01697228        0.01211265        0.05787869        0.12123522
      15         -0.640367        1.000000        0.00052122        0.00707737        0.00035655        0.00015041
      16         -0.631081        1.000000        0.00007255        0.00187660        0.00020816        0.00002237
      17         -0.622812        1.000000        0.00001782        0.00011144        0.00098807        0.00001704
      18         -0.619688        1.000000        0.00002926        0.00004768        0.00379984        0.00010352
      19         -0.615429        1.000000        0.00017236        0.00015450        0.00874934        0.00018602
      20         -0.603536        1.000000        0.00010973        0.00686836        0.01400283        0.00143590
      21         -0.597807        1.000000        0.00028567        0.00845280        0.01450532        0.00523501
      22         -0.594685        1.000000        0.00010261        0.01807008        0.00744000        0.00059472
      23         -0.594373        1.000000        0.00032261        0.00300521        0.00581973        0.00031182
      24         -0.593210        1.000000        0.00002489        0.01214847        0.00536549        0.00191747
      25         -0.591257        1.000000        0.00017521        0.00863744        0.07435417        0.02201005
      26         -0.588247        1.000000        0.00019848        0.12381537        0.02019610        0.00090763
      27         -0.587614        1.000000        0.00023218        0.05273654        0.00588289        0.00065282
      28         -0.586131        1.000000        0.00024924        0.06858970        0.01843393        0.00262558
      29         -0.583927        1.000000        0.00016878        0.00433990        0.00888924        0.00275027
      30         -0.583168        1.000000        0.00005847        0.02171636        0.05050604        0.00205144
      31         -0.582586        1.000000        0.00045925        0.07878643        0.03562294        0.00459329
      32         -0.582337        1.000000        0.00012496        0.03311197        0.00880085        0.00010463
      33         -0.580369        1.000000        0.00010593        0.02099932        0.02357908        0.00497811
      34         -0.580076        1.000000        0.00011852        0.03034469        0.02249932        0.00385307
      35         -0.578440        1.000000        0.00002332        0.05270743        0.04858068        0.00133694
      36         -0.577987        1.000000        0.00018719        0.02915213        0.10509569        0.01049527
      37         -0.577675        1.000000        0.00004409        0.00965544        0.37971161        0.00333990
      38         -0.576144        1.000000        0.00017554        0.08590526        0.01933903        0.00235824
      39         -0.575209        1.000000        0.00007630        0.02820440        0.01696960        0.00394600
      40         -0.574827        1.000000        0.00006714        0.01504131        0.05034647        0.01198620
      41         -0.574316        1.000000        0.00010882        0.03989061        0.05005835        0.01151027
      42         -0.573214        1.000000        0.00025070        0.03873665        0.14950318        0.03715676
      43         -0.572806        1.000000        0.00002315        0.00700679        0.00529219        0.00339241
      44         -0.571373        1.000000        0.00000268        0.00197712        0.00078068        0.00040624
      45         -0.570790        1.000000        0.00021839        0.04703709        0.03371228        0.00613279
      46         -0.570480        1.000000        0.00005937        0.13048023        0.09933703        0.04165238
      47         -0.569812        1.000000        0.00017537        0.05917201        0.02477224        0.00054075
      48         -0.568011        1.000000        0.00024325        0.45616785        0.06267155        0.00039709
      49         -0.566927        1.000000        0.00026526        0.00604654        0.06191141        0.01095469
      50         -0.564172        1.000000        0.00008957        0.03167293        0.38961896        0.00436968
      51         -0.562723        1.000000        0.00029886        0.08408894        0.31609752        0.12925134
      52         -0.561038        1.000000        0.00018319        0.04794319        0.03452269        0.01963370
      53         -0.560386        1.000000        0.00035345        0.16161530        0.09014729        0.02416795
      54         -0.559964        1.000000        0.00045702        0.28096511        0.11132411        0.02556806
      55         -0.559374        1.000000        0.00012726        0.01339787        0.03175194        0.01030453
      56         -0.557587        1.000000        0.00117028        0.11045641        0.21471643        0.15716133
      57         -0.556621        1.000000        0.00118669        0.24794541        0.02243169        0.00097579
      58         -0.554431        1.000000        0.00009978        0.02647533        0.12590848        0.03340163
      59         -0.551156        1.000000        0.00091685        0.27939215        0.17535860        0.00550142
      60         -0.545922        1.000000        0.00050292        0.00415920        0.34270522        0.14236117
      61         -0.544889        1.000000        0.00084382        0.32383954        0.03667955        0.02779675
      62         -0.541933        1.000000        0.00119610        0.29013895        0.01784512        0.01427733
      63         -0.538446        1.000000        0.00053755        0.29681583        0.09303728        0.00680975
      64         -0.538038        1.000000        0.00018057        0.41951675        0.00104553        0.04260063
      65         -0.473953        1.000000        0.00854978        0.00111509        0.00184072        0.43707513
      66         -0.469955        1.000000        0.00866001        0.00230472        0.00281851        0.42526347
      67         -0.465112        1.000000        0.00177477        0.00064181        0.00150937        0.09064260
      68         -0.464751        1.000000        0.00694148        0.00232503        0.00496895        0.33653197
      69         -0.464189        1.000000        0.00882452        0.00125425        0.11807031        0.27734188
      70         -0.463812        1.000000        0.00922077        0.01060767        0.09483394        0.32658351
      71         -0.461699        1.000000        0.00519974        0.00343233        0.09713486        0.13243004
      72         -0.460868        1.000000        0.00108455        0.00036012        0.02397544        0.02975605
      73         -0.459448        1.000000        0.00334701        0.00036822        0.08818448        0.09831036
      74         -0.458486        1.000000        0.00009371        0.00077459        0.00370415        0.00606726
      75         -0.454240        1.000000        0.00161211        0.00755811        0.02081522        0.03877197
      76         -0.451606        1.000000        0.00701233        0.02553448        0.10571697        0.23895766
      77         -0.450241        1.000000        0.00003534        0.00049267        0.00058233        0.00371171
      78         -0.443153        1.000000        0.00001685        0.00139347        0.00381180        0.00762178
      79         -0.439584        1.000000        0.00000647        0.00119212        0.00039771        0.00173127
      80         -0.410743        1.000000        0.00000617        0.03823215        0.00001602        0.00076114
      81         -0.409901        1.000000        0.00000591        0.00024455        0.03371375        0.00025722
      82         -0.407698        1.000000        0.00000749        0.00033088        0.03852932        0.00046043
      83         -0.406292        1.000000        0.00000643        0.04390431        0.00044018        0.00045769
      84         -0.402421        1.000000        0.00001017        0.00378565        0.03863578        0.00088603
      85         -0.401821        1.000000        0.00000050        0.03291051        0.00104339        0.00007787
      86         -0.400759        1.000000        0.00001587        0.03326534        0.00480338        0.00245128
      87         -0.400112        1.000000        0.00001009        0.00579544        0.02184991        0.00893330
      88         -0.398917        1.000000        0.00001735        0.03934381        0.00041151        0.00036507
      89         -0.398313        1.000000        0.00000378        0.00092717        0.02592493        0.00755617
      90         -0.398197        1.000000        0.00001136        0.00203271        0.02146515        0.01269851
      91         -0.395468        1.000000        0.00001126        0.03698847        0.00055052        0.00192135
      92         -0.390099        1.000000        0.00000193        0.00963154        0.02336973        0.00579645
      93         -0.386858        1.000000        0.00000691        0.02695381        0.00292675        0.00949560
      94         -0.323843        1.000000        0.00026085        0.00149430        0.00026912        0.00036954
      95         -0.315921        1.000000        0.00005312        0.00007713        0.00005780        0.00001334
      96         -0.305522        1.000000        0.00003209        0.00003161        0.00009644        0.00001301
      97         -0.303267        1.000000        0.00006135        0.00008573        0.00017266        0.00002515
      98         -0.299335        1.000000        0.00010991        0.00001734        0.00051370        0.00010594
      99         -0.276640        1.000000        0.00042805        0.00147065        0.00022907        0.00040722
     100         -0.273909        1.000000        0.00050265        0.00095877        0.00120547        0.00046597
     101         -0.273376        1.000000        0.00197667        0.00443465        0.00025208        0.00182204
     102         -0.269729        1.000000        0.00025599        0.00031477        0.00024563        0.00012292
     103         -0.268748        1.000000        0.00051820        0.00023666        0.00025603        0.00021728
     104         -0.266653        1.000000        0.00020460        0.00062608        0.00021279        0.00018961
     105         -0.265242        1.000000        0.00028313        0.00077819        0.00078456        0.00009524
     106         -0.264939        1.000000        0.00030043        0.00134617        0.00038261        0.00038044
     107         -0.263329        1.000000        0.00016505        0.00013816        0.00043511        0.00022347
     108         -0.260754        1.000000        0.00050417        0.00139638        0.00064148        0.00047810
     109         -0.257656        1.000000        0.00022744        0.00108524        0.00049273        0.00057746
     110         -0.256438        1.000000        0.00024460        0.00013323        0.00031124        0.00017107
     111         -0.256062        1.000000        0.00021692        0.00017028        0.00051739        0.00014871
     112         -0.254499        1.000000        0.00032750        0.00121838        0.00014439        0.00044645
     113         -0.253895        1.000000        0.00021462        0.00082071        0.00006257        0.00020458
     114         -0.252564        1.000000        0.00087354        0.00021151        0.00037272        0.00045379
     115         -0.251026        1.000000        0.00036549        0.00062412        0.00048580        0.00037097
     116         -0.247308        1.000000        0.00015766        0.00041695        0.00048049        0.00019565
     117         -0.245709        1.000000        0.00046185        0.00038320        0.00037969        0.00030909
     118         -0.244702        1.000000        0.00026267        0.00049389        0.00047603        0.00033910
     119         -0.244476        1.000000        0.00012949        0.00080446        0.00017612        0.00011181
     120         -0.243351        1.000000        0.00028030        0.00066746        0.00031484        0.00023547
     121         -0.240288        1.000000        0.00025286        0.00063588        0.00031709        0.00018665
     122         -0.239086        1.000000        0.00027554        0.00084236        0.00197770        0.00025192
     123         -0.237191        1.000000        0.00054864        0.00027440        0.00135848        0.00031057
     124         -0.236270        1.000000        0.00039751        0.00055489        0.00081268        0.00009129
     125         -0.235699        1.000000        0.00096376        0.00012728        0.00053934        0.00053052
     126         -0.234113        1.000000        0.00165419        0.00066384        0.00234767        0.00094518
     127         -0.233478        1.000000        0.00015077        0.00051153        0.00037167        0.00010102
     128         -0.232405        1.000000        0.00063783        0.00113334        0.00018469        0.00034199
     129         -0.229411        1.000000        0.00084834        0.00033232        0.00224955        0.00027714
     130         -0.227763        1.000000        0.00044719        0.00057865        0.00080882        0.00043785
     131         -0.225413        1.000000        0.00095770        0.00225303        0.00053295        0.00070545
     132         -0.224052        1.000000        0.00299436        0.00431983        0.00117310        0.00145848
     133         -0.222361        1.000000        0.00219920        0.00151453        0.00071312        0.00136711
     134         -0.220691        1.000000        0.00063415        0.00096092        0.00063728        0.00036532
     135         -0.219020        1.000000        0.00067886        0.00092503        0.00236989        0.00021651
     136         -0.218327        1.000000        0.00081406        0.00117379        0.00062313        0.00045216
     137         -0.216233        1.000000        0.00095089        0.00022684        0.00137553        0.00042522
     138         -0.215483        1.000000        0.00265534        0.00335715        0.00233420        0.00131508
     139         -0.214606        1.000000        0.00142315        0.00238847        0.00161517        0.00063724
     140         -0.214369        1.000000        0.00102060        0.00407528        0.00076223        0.00041741
     141         -0.213409        1.000000        0.00124836        0.00096058        0.00464367        0.00027653
     142         -0.211776        1.000000        0.00200129        0.00415815        0.00235591        0.00031114
     143         -0.211151        1.000000        0.00061883        0.00152300        0.00077503        0.00043225
     144         -0.210146        1.000000        0.00069263        0.00190313        0.00197962        0.00041785
     145         -0.208580        1.000000        0.00150877        0.00420687        0.00079572        0.00104350
     146         -0.208428        1.000000        0.00028817        0.00172406        0.00057918        0.00020301
     147         -0.207772        1.000000        0.00089959        0.00330120        0.00074130        0.00028357
     148         -0.207418        1.000000        0.00064357        0.00212675        0.00120803        0.00082555
     149         -0.205794        1.000000        0.00042176        0.00599878        0.00037295        0.00066477
     150         -0.205456        1.000000        0.00082840        0.00140653        0.00076234        0.00062582
     151         -0.205045        1.000000        0.00070797        0.00277169        0.00056290        0.00051354
     152         -0.203876        1.000000        0.00037311        0.00193066        0.00037148        0.00102294
     153         -0.203271        1.000000        0.00038294        0.00110261        0.00076776        0.00057978
     154         -0.202406        1.000000        0.00083123        0.00243620        0.00050660        0.00038435
     155         -0.201918        1.000000        0.00077944        0.00410452        0.00031900        0.00052304
     156         -0.201170        1.000000        0.00030509        0.00164632        0.00017047        0.00024220
     157         -0.200653        1.000000        0.00028715        0.00194976        0.00024179        0.00119172
     158         -0.199566        1.000000        0.00035076        0.00060842        0.00041583        0.00061649
     159         -0.198541        1.000000        0.00046104        0.00153183        0.00044888        0.00064923
     160         -0.197965        1.000000        0.00152105        0.00158933        0.00099896        0.00354743
     161         -0.197009        1.000000        0.00036675        0.00059241        0.00075027        0.00013256
     162         -0.196589        1.000000        0.00016923        0.00021504        0.00055795        0.00004452
     163         -0.196294        1.000000        0.00099166        0.00282421        0.00194794        0.00059449
     164         -0.195928        1.000000        0.00061899        0.00344693        0.00140890        0.00048224
     165         -0.195080        1.000000        0.00133830        0.00380685        0.00137738        0.00042263
     166         -0.194735        1.000000        0.00043328        0.00198815        0.00106521        0.00029735
     167         -0.193768        1.000000        0.00069248        0.00153581        0.00369306        0.00094191
     168         -0.193492        1.000000        0.00035679        0.00191359        0.00068969        0.00012003
     169         -0.193362        1.000000        0.00032353        0.00079206        0.00059033        0.00037555
     170         -0.192850        1.000000        0.00029387        0.00142314        0.00072041        0.00020645
     171         -0.191806        1.000000        0.00132378        0.00568977        0.00254965        0.00117903
     172         -0.191160        1.000000        0.00015219        0.00082814        0.00045112        0.00019861
     173         -0.190214        1.000000        0.00055748        0.00258084        0.00042382        0.00030308
     174         -0.190079        1.000000        0.00212694        0.00988577        0.00090163        0.00150809
     175         -0.189442        1.000000        0.00041155        0.00451913        0.00002652        0.00011164
     176         -0.188828        1.000000        0.00035250        0.00239369        0.00118956        0.00049824
     177         -0.188175        1.000000        0.00011468        0.00061005        0.00035799        0.00012490
     178         -0.187748        1.000000        0.00012048        0.00089934        0.00004168        0.00017892
     179         -0.187689        1.000000        0.00003246        0.00042384        0.00008436        0.00006839
     180         -0.187342        1.000000        0.00013987        0.00045468        0.00021323        0.00006578
     181         -0.186849        1.000000        0.00037916        0.00157220        0.00043721        0.00021177
     182         -0.186471        1.000000        0.00010254        0.00076686        0.00005849        0.00018614
     183         -0.186117        1.000000        0.00003506        0.00033425        0.00013814        0.00002452
     184         -0.184686        1.000000        0.00082906        0.00323797        0.00040971        0.00055385
     185         -0.184078        1.000000        0.00016841        0.00123592        0.00008419        0.00003258
     186         -0.183198        1.000000        0.00032946        0.00107049        0.00026890        0.00004337
     187         -0.182472        1.000000        0.00009978        0.00022139        0.00010691        0.00006864
     188         -0.182396        1.000000        0.00017129        0.00068388        0.00023839        0.00004555
     189         -0.181912        1.000000        0.00013999        0.00046008        0.00013727        0.00001898
     190         -0.178393        1.000000        0.00007016        0.00025933        0.00004485        0.00039789
     191         -0.176335        1.000000        0.00007603        0.00017916        0.00005258        0.00005323
     192         -0.174275        1.000000        0.00000949        0.00014901        0.00006241        0.00001952
     193         -0.174210        1.000000        0.00001145        0.00003809        0.00002077        0.00000478
     194         -0.172599        1.000000        0.00002843        0.00008407        0.00002020        0.00002915
     195         -0.172077        1.000000        0.00008202        0.00016430        0.00009906        0.00010878
     196         -0.168826        0.000000        0.00002540        0.00009981        0.00002558        0.00002367
     197         -0.167272        0.000000        0.00000079        0.00000145        0.00003446        0.00000263
     198         -0.160679        0.000000        0.00003684        0.00006149        0.00003298        0.00002339
     199         -0.155514        0.000000        0.00003451        0.00027059        0.00006410        0.00010525
     200         -0.155092        0.000000        0.00001983        0.00009123        0.00006222        0.00001252
     201         -0.129183        0.000000        0.00000406        0.00000927        0.00000639        0.00000577
     202         -0.074147        0.000000        0.00035308        0.00016969        0.00021883        0.00000767
     203         -0.073773        0.000000        0.00003827        0.00000456        0.00005592        0.00001270
     204         -0.072840        0.000000        0.00003929        0.00007157        0.00032699        0.00004423
     205         -0.062706        0.000000        0.00056769        0.00033852        0.00038080        0.00003920
     206         -0.055849        0.000000        0.00008197        0.00005681        0.00018645        0.00006835
     207         -0.052998        0.000000        0.00004664        0.00010286        0.00003662        0.00002712
     208         -0.049523        0.000000        0.00012429        0.00002863        0.00012638        0.00002228
     209         -0.046686        0.000000        0.00007393        0.00002341        0.00005870        0.00012470
     210         -0.040753        0.000000        0.00012654        0.00002945        0.00010003        0.00002037
     211         -0.040502        0.000000        0.00005789        0.00002544        0.00007727        0.00000612
     212         -0.038561        0.000000        0.00015311        0.00035059        0.00013715        0.00007676
     213         -0.034739        0.000000        0.00003324        0.00014760        0.00006564        0.00003474
     214         -0.033647        0.000000        0.00017203        0.00014607        0.00001465        0.00000899
     215         -0.030606        0.000000        0.00011578        0.00020205        0.00031840        0.00003578
     216         -0.026412        0.000000        0.00008762        0.00027863        0.00015417        0.00004182
     217         -0.024009        0.000000        0.00004579        0.00002240        0.00003831        0.00002873
     218         -0.022599        0.000000        0.00023909        0.00063899        0.00021355        0.00003950
     219         -0.020635        0.000000        0.00005770        0.00008756        0.00003470        0.00003245
     220         -0.017987        0.000000        0.00008105        0.00005563        0.00006132        0.00003843
     221         -0.017747        0.000000        0.00003535        0.00011983        0.00004119        0.00001598
     222         -0.014872        0.000000        0.00028789        0.00043630        0.00008562        0.00003459
     223         -0.014478        0.000000        0.00009467        0.00026246        0.00009922        0.00000997
     224         -0.011897        0.000000        0.00016703        0.00000912        0.00013671        0.00012219
     225         -0.008741        0.000000        0.00029696        0.00067545        0.00007860        0.00005254
     226          0.088305        0.000000        0.09813971        0.00058806        0.00087638        0.26043650
     227          0.098884        0.000000        0.09804654        0.00649375        0.05650821        0.19563834
     228          0.102780        0.000000        0.10460168        0.00152524        0.00283309        0.25567717
     229          0.103763        0.000000        0.10436609        0.00016193        0.07542547        0.17973665
     230          0.103953        0.000000        0.10421471        0.00179088        0.00326903        0.25591361
     231          0.109000        0.000000        0.10277133        0.00205119        0.12060896        0.13530523
     232          0.115318        0.000000        0.10183528        0.01856848        0.07584680        0.16753207
     233          0.283665        0.000000        0.00274796        0.30864302        0.00504507        0.00017258
     234          0.284817        0.000000        0.00000212        0.00609211        0.32420468        0.00126477
     235          0.286037        0.000000        0.00013110        0.27443591        0.03381581        0.00361402
     236          0.290041        0.000000        0.00330855        0.30013724        0.02622368        0.00060746
     237          0.293168        0.000000        0.00233452        0.02436313        0.22677865        0.07940699
     238          0.294703        0.000000        0.00419245        0.18397505        0.09699763        0.02493819
     239          0.295023        0.000000        0.00123203        0.08955426        0.17406624        0.05020940
     240          0.295166        0.000000        0.00147385        0.25697874        0.04553636        0.00650911
     241          0.296596        0.000000        0.00415928        0.03085412        0.12427724        0.16781354
     242          0.298058        0.000000        0.00168697        0.02895550        0.29020893        0.00325970
     243          0.300357        0.000000        0.00014764        0.27706762        0.02759272        0.01078113
     244          0.301918        0.000000        0.01014136        0.07625933        0.24400220        0.00104084
     245          0.307553        0.000000        0.00062548        0.15060080        0.07726809        0.08779285
     246          0.311190        0.000000        0.00019787        0.14146834        0.16011978        0.01835547
     247          0.316485        0.000000        0.24663898        0.00055376        0.00050401        0.09412104
     248          0.327639        0.000000        0.24578919        0.00030415        0.01611329        0.08407394
     249          0.336288        0.000000        0.23992928        0.00050542        0.02168090        0.08412025
     250          0.337491        0.000000        0.23902132        0.00171794        0.00830526        0.09704212
     251          0.337677        0.000000        0.23956079        0.00111745        0.05550723        0.04655752
     252          0.344754        0.000000        0.22789048        0.01372244        0.00092857        0.09417332
     253          0.349259        0.000000        0.24376312        0.00453352        0.02512801        0.07167141
     254          0.454596        0.000000        0.00000019        0.00580231        0.01716545        0.00016869
     255          0.459539        0.000000        0.00000329        0.01526451        0.00528116        0.00001366
     256          0.462974        0.000000        0.00004925        0.02285336        0.00138966        0.00015469
     257          0.464494        0.000000        0.00000641        0.00085442        0.02524651        0.00021630
     258          0.466160        0.000000        0.00004530        0.02268622        0.00048660        0.00020767
     259          0.467274        0.000000        0.00001468        0.00153358        0.02365949        0.00045041